12
terachem gradient in au, energy -412.1847992221 , grad_rms 0.130306 , grad_max 0.269579 on atom 6
 N       0.1      -0.0     -0.0
 N      -0.0       0.0      0.0
 C      -0.0       0.0      0.0
 C       0.0      -0.1      0.0
 C       0.1      -0.0     -0.0
 C      -0.1      -0.2     -0.0
 O       0.1       0.1      0.0
 O       0.0      -0.0     -0.0
 H      -0.0       0.0      0.0
 H       0.0       0.0     -0.0
 H      -0.0       0.0     -0.0
 H      -0.0       0.0      0.0
