[Molden Format]
[Title]
Written by TeraChem
[Atoms] Angs
C   1   6      2.11486    1.18872    0.00109
C   2   6      2.76911   -0.05309   -0.00895
C   3   6      2.04304   -1.25050   -0.00300
C   4   6      0.66644   -1.22550    0.01291
C   5   6      0.00008   -0.00334    0.02325
C   6   6      0.71478    1.18509    0.01745
H   7   1      2.58029   -2.18421   -0.01105
H   8   1      0.11285   -2.15359    0.01756
H   9   1     -1.08084    0.02552    0.03582
H   10   1      0.21570    2.14290    0.02519
O   11   8      2.70716    2.39093   -0.00304
H   12   1      3.64980    2.28964   -0.01702
N   13   7      4.22168   -0.14829   -0.02560
O   14   8      4.86556    0.87173   -0.03660
O   15   8      4.71978   -1.23549   -0.02791
[GTO]
    1 0
 s    8 1.00
         6665.000000             0.000692
         1000.000000             0.005326
          228.000000             0.027061
           64.710000             0.101657
           21.060000             0.274575
            7.495000             0.448294
            2.797000             0.284903
            0.521500             0.015195
 s    8 1.00
         6665.000000            -0.000293
         1000.000000            -0.002318
          228.000000            -0.011500
           64.710000            -0.046827
           21.060000            -0.128466
            7.495000            -0.301266
            2.797000            -0.255631
            0.521500             1.093793
 s    1 1.00
            0.159600             1.000000
 p    3 1.00
            9.439000             0.056979
            2.002000             0.313207
            0.545600             0.760377
 p    1 1.00
            0.151700             1.000000
 d    1 1.00
            0.550000             1.000000

    2 0
 s    8 1.00
         6665.000000             0.000692
         1000.000000             0.005326
          228.000000             0.027061
           64.710000             0.101657
           21.060000             0.274575
            7.495000             0.448294
            2.797000             0.284903
            0.521500             0.015195
 s    8 1.00
         6665.000000            -0.000293
         1000.000000            -0.002318
          228.000000            -0.011500
           64.710000            -0.046827
           21.060000            -0.128466
            7.495000            -0.301266
            2.797000            -0.255631
            0.521500             1.093793
 s    1 1.00
            0.159600             1.000000
 p    3 1.00
            9.439000             0.056979
            2.002000             0.313207
            0.545600             0.760377
 p    1 1.00
            0.151700             1.000000
 d    1 1.00
            0.550000             1.000000

    3 0
 s    8 1.00
         6665.000000             0.000692
         1000.000000             0.005326
          228.000000             0.027061
           64.710000             0.101657
           21.060000             0.274575
            7.495000             0.448294
            2.797000             0.284903
            0.521500             0.015195
 s    8 1.00
         6665.000000            -0.000293
         1000.000000            -0.002318
          228.000000            -0.011500
           64.710000            -0.046827
           21.060000            -0.128466
            7.495000            -0.301266
            2.797000            -0.255631
            0.521500             1.093793
 s    1 1.00
            0.159600             1.000000
 p    3 1.00
            9.439000             0.056979
            2.002000             0.313207
            0.545600             0.760377
 p    1 1.00
            0.151700             1.000000
 d    1 1.00
            0.550000             1.000000

    4 0
 s    8 1.00
         6665.000000             0.000692
         1000.000000             0.005326
          228.000000             0.027061
           64.710000             0.101657
           21.060000             0.274575
            7.495000             0.448294
            2.797000             0.284903
            0.521500             0.015195
 s    8 1.00
         6665.000000            -0.000293
         1000.000000            -0.002318
          228.000000            -0.011500
           64.710000            -0.046827
           21.060000            -0.128466
            7.495000            -0.301266
            2.797000            -0.255631
            0.521500             1.093793
 s    1 1.00
            0.159600             1.000000
 p    3 1.00
            9.439000             0.056979
            2.002000             0.313207
            0.545600             0.760377
 p    1 1.00
            0.151700             1.000000
 d    1 1.00
            0.550000             1.000000

    5 0
 s    8 1.00
         6665.000000             0.000692
         1000.000000             0.005326
          228.000000             0.027061
           64.710000             0.101657
           21.060000             0.274575
            7.495000             0.448294
            2.797000             0.284903
            0.521500             0.015195
 s    8 1.00
         6665.000000            -0.000293
         1000.000000            -0.002318
          228.000000            -0.011500
           64.710000            -0.046827
           21.060000            -0.128466
            7.495000            -0.301266
            2.797000            -0.255631
            0.521500             1.093793
 s    1 1.00
            0.159600             1.000000
 p    3 1.00
            9.439000             0.056979
            2.002000             0.313207
            0.545600             0.760377
 p    1 1.00
            0.151700             1.000000
 d    1 1.00
            0.550000             1.000000

    6 0
 s    8 1.00
         6665.000000             0.000692
         1000.000000             0.005326
          228.000000             0.027061
           64.710000             0.101657
           21.060000             0.274575
            7.495000             0.448294
            2.797000             0.284903
            0.521500             0.015195
 s    8 1.00
         6665.000000            -0.000293
         1000.000000            -0.002318
          228.000000            -0.011500
           64.710000            -0.046827
           21.060000            -0.128466
            7.495000            -0.301266
            2.797000            -0.255631
            0.521500             1.093793
 s    1 1.00
            0.159600             1.000000
 p    3 1.00
            9.439000             0.056979
            2.002000             0.313207
            0.545600             0.760377
 p    1 1.00
            0.151700             1.000000
 d    1 1.00
            0.550000             1.000000

    7 0
 s    3 1.00
           13.010000             0.033499
            1.962000             0.234801
            0.444600             0.813683
 s    1 1.00
            0.122000             1.000000
 p    1 1.00
            0.727000             1.000000

    8 0
 s    3 1.00
           13.010000             0.033499
            1.962000             0.234801
            0.444600             0.813683
 s    1 1.00
            0.122000             1.000000
 p    1 1.00
            0.727000             1.000000

    9 0
 s    3 1.00
           13.010000             0.033499
            1.962000             0.234801
            0.444600             0.813683
 s    1 1.00
            0.122000             1.000000
 p    1 1.00
            0.727000             1.000000

   10 0
 s    3 1.00
           13.010000             0.033499
            1.962000             0.234801
            0.444600             0.813683
 s    1 1.00
            0.122000             1.000000
 p    1 1.00
            0.727000             1.000000

   11 0
 s    8 1.00
        11720.000000             0.000710
         1759.000000             0.005467
          400.800000             0.027823
          113.700000             0.104748
           37.030000             0.282921
           13.270000             0.448495
            5.025000             0.270817
            1.013000             0.015450
 s    8 1.00
        11720.000000            -0.000314
         1759.000000            -0.002482
          400.800000            -0.012316
          113.700000            -0.050539
           37.030000            -0.139385
           13.270000            -0.325077
            5.025000            -0.229848
            1.013000             1.095379
 s    1 1.00
            0.302300             1.000000
 p    3 1.00
           17.700000             0.062679
            3.854000             0.333537
            1.046000             0.741240
 p    1 1.00
            0.275300             1.000000
 d    1 1.00
            1.185000             1.000000

   12 0
 s    3 1.00
           13.010000             0.033499
            1.962000             0.234801
            0.444600             0.813683
 s    1 1.00
            0.122000             1.000000
 p    1 1.00
            0.727000             1.000000

   13 0
 s    8 1.00
         9046.000000             0.000700
         1357.000000             0.005386
          309.300000             0.027391
           87.730000             0.103151
           28.560000             0.278571
           10.210000             0.448295
            3.838000             0.278086
            0.746600             0.015432
 s    8 1.00
         9046.000000            -0.000305
         1357.000000            -0.002408
          309.300000            -0.011944
           87.730000            -0.048926
           28.560000            -0.134473
           10.210000            -0.315113
            3.838000            -0.242858
            0.746600             1.094382
 s    1 1.00
            0.224800             1.000000
 p    3 1.00
           13.550000             0.058906
            2.917000             0.320461
            0.797300             0.753042
 p    1 1.00
            0.218500             1.000000
 d    1 1.00
            0.817000             1.000000

   14 0
 s    8 1.00
        11720.000000             0.000710
         1759.000000             0.005467
          400.800000             0.027823
          113.700000             0.104748
           37.030000             0.282921
           13.270000             0.448495
            5.025000             0.270817
            1.013000             0.015450
 s    8 1.00
        11720.000000            -0.000314
         1759.000000            -0.002482
          400.800000            -0.012316
          113.700000            -0.050539
           37.030000            -0.139385
           13.270000            -0.325077
            5.025000            -0.229848
            1.013000             1.095379
 s    1 1.00
            0.302300             1.000000
 p    3 1.00
           17.700000             0.062679
            3.854000             0.333537
            1.046000             0.741240
 p    1 1.00
            0.275300             1.000000
 d    1 1.00
            1.185000             1.000000

   15 0
 s    8 1.00
        11720.000000             0.000710
         1759.000000             0.005467
          400.800000             0.027823
          113.700000             0.104748
           37.030000             0.282921
           13.270000             0.448495
            5.025000             0.270817
            1.013000             0.015450
 s    8 1.00
        11720.000000            -0.000314
         1759.000000            -0.002482
          400.800000            -0.012316
          113.700000            -0.050539
           37.030000            -0.139385
           13.270000            -0.325077
            5.025000            -0.229848
            1.013000             1.095379
 s    1 1.00
            0.302300             1.000000
 p    3 1.00
           17.700000             0.062679
            3.854000             0.333537
            1.046000             0.741240
 p    1 1.00
            0.275300             1.000000
 d    1 1.00
            1.185000             1.000000

[MO]
 Ene= 0.0
 Spin= Alpha
 Occup=    -0.4227
    1   -0.00000
    2   -0.00001
    3    0.00009
    4    0.00317
    5   -0.00054
    6    0.26850
    7    0.00183
    8   -0.00046
    9    0.17758
   10   -0.00049
   11    0.00011
   12    0.00037
   13   -0.00023
   14   -0.02278
   15   -0.02297
   16   -0.00001
   17    0.00001
   18    0.00025
   19    0.00135
   20   -0.00016
   21    0.11864
   22    0.00150
   23   -0.00021
   24    0.11545
   25   -0.00001
   26   -0.00010
   27    0.00011
   28    0.00034
   29   -0.00064
   30    0.02824
   31   -0.00000
   32   -0.00001
   33    0.00008
   34   -0.00246
   35    0.00037
   36   -0.21750
   37   -0.00232
   38    0.00033
   39   -0.19116
   40    0.00040
   41   -0.00002
   42   -0.00039
   43   -0.00000
   44    0.02069
   45    0.00437
   46    0.00000
   47    0.00001
   48   -0.00013
   49   -0.00303
   50    0.00055
   51   -0.25781
   52   -0.00263
   53    0.00045
   54   -0.21936
   55   -0.00032
   56    0.00001
   57    0.00032
   58    0.00003
   59   -0.01592
   60   -0.00033
   61   -0.00000
   62    0.00002
   63    0.00008
   64    0.00027
   65   -0.00004
   66    0.01984
   67    0.00031
   68   -0.00003
   69    0.01857
   70    0.00005
   71   -0.00010
   72    0.00006
   73    0.00033
   74    0.00259
   75    0.02921
   76    0.00001
   77   -0.00001
   78   -0.00033
   79    0.00325
   80   -0.00061
   81    0.28496
   82    0.00254
   83   -0.00044
   84    0.23151
   85    0.00038
   86    0.00003
   87   -0.00040
   88   -0.00010
   89    0.01887
   90   -0.00583
   91    0.00007
   92    0.00004
   93   -0.00010
   94    0.00002
   95   -0.00825
   96   -0.00002
   97   -0.00002
   98   -0.00012
   99    0.00002
  100   -0.01002
  101   -0.00003
  102   -0.00000
  103    0.00001
  104   -0.00000
  105    0.00064
  106   -0.00000
  107    0.00002
  108    0.00012
  109   -0.00002
  110    0.00995
  111   -0.00000
  112   -0.00010
  113   -0.00020
  114   -0.00323
  115    0.00057
  116   -0.25032
  117   -0.00305
  118    0.00052
  119   -0.23126
  120   -0.00013
  121   -0.00001
  122    0.00015
  123    0.00003
  124   -0.00645
  125    0.00009
  126    0.00032
  127    0.00010
  128   -0.00023
  129    0.00005
  130   -0.01419
  131    0.00001
  132    0.00001
  133   -0.00012
  134    0.00010
  135    0.00007
  136    0.00923
  137    0.00010
  138   -0.00004
  139   -0.00338
  140   -0.00015
  141   -0.00005
  142    0.00022
  143   -0.00009
  144   -0.00797
  145   -0.00723
  146    0.00001
  147    0.00004
  148    0.00001
  149   -0.00124
  150   -0.00029
  151   -0.09654
  152   -0.00109
  153   -0.00020
  154   -0.08229
  155    0.00005
  156    0.00002
  157   -0.00006
  158    0.00004
  159    0.00224
  160    0.00257
  161    0.00001
  162    0.00002
  163   -0.00005
  164    0.00056
  165    0.00008
  166    0.03273
  167    0.00043
  168    0.00004
  169    0.02504
  170   -0.00002
  171    0.00001
  172    0.00001
  173    0.00002
  174   -0.00075
  175    0.00149
 Ene= 0.0
 Spin= Alpha
 Occup=     0.4227
    1    0.00003
    2    0.00039
    3    0.00123
    4    0.00046
    5   -0.00040
    6    0.01164
    7   -0.00030
    8   -0.00081
    9    0.00076
   10    0.00033
   11    0.00003
   12   -0.00031
   13   -0.00028
   14    0.01481
   15   -0.01769
   16   -0.00002
   17    0.00001
   18    0.00125
   19    0.00171
   20   -0.00025
   21    0.14159
   22    0.00221
   23   -0.00220
   24    0.24985
   25   -0.00081
   26    0.00010
   27    0.00075
   28   -0.00019
   29   -0.03872
   30    0.00017
   31   -0.00004
   32   -0.00017
   33   -0.00080
   34    0.00029
   35   -0.00068
   36    0.03597
   37    0.00082
   38   -0.00261
   39    0.05426
   40    0.00029
   41   -0.00013
   42   -0.00031
   43    0.00013
   44    0.01726
   45    0.01605
   46   -0.00003
   47    0.00014
   48    0.00154
   49   -0.00163
   50    0.00018
   51   -0.14784
   52   -0.00344
   53    0.00066
   54   -0.29705
   55   -0.00007
   56   -0.00005
   57    0.00011
   58    0.00009
   59   -0.00411
   60    0.01162
   61   -0.00001
   62    0.00007
   63    0.00042
   64    0.00154
   65   -0.00031
   66    0.13370
   67    0.00379
   68   -0.00044
   69    0.33863
   70   -0.00015
   71    0.00000
   72    0.00013
   73    0.00005
   74   -0.00626
   75    0.00356
   76    0.00001
   77   -0.00013
   78   -0.00122
   79   -0.00138
   80    0.00014
   81   -0.09839
   82   -0.00284
   83    0.00055
   84   -0.22163
   85   -0.00017
   86    0.00004
   87    0.00011
   88   -0.00015
   89   -0.00715
   90   -0.01236
   91   -0.00014
   92   -0.00259
   93    0.00000
   94   -0.00002
   95    0.00172
   96   -0.00016
   97   -0.00111
   98   -0.00010
   99    0.00000
  100   -0.00828
  101   -0.00007
  102   -0.00053
  103    0.00009
  104   -0.00002
  105    0.00778
  106    0.00006
  107    0.00046
  108   -0.00007
  109    0.00000
  110   -0.00590
  111   -0.00001
  112   -0.00014
  113   -0.00024
  114   -0.00042
  115    0.00013
  116   -0.00601
  117   -0.00051
  118   -0.00007
  119   -0.00579
  120    0.00003
  121    0.00002
  122   -0.00003
  123    0.00000
  124    0.00140
  125   -0.00051
  126    0.00004
  127    0.00125
  128    0.00019
  129   -0.00002
  130    0.00822
  131    0.00001
  132   -0.00003
  133   -0.00025
  134   -0.00588
  135   -0.00169
  136   -0.50465
  137   -0.00673
  138   -0.00142
  139   -0.56645
  140    0.00028
  141   -0.00002
  142   -0.00025
  143    0.00010
  144    0.01266
  145   -0.00245
  146    0.00002
  147    0.00004
  148   -0.00016
  149    0.00329
  150    0.00088
  151    0.29971
  152    0.00423
  153    0.00108
  154    0.37428
  155    0.00009
  156    0.00008
  157   -0.00014
  158    0.00014
  159    0.00480
  160    0.01005
  161   -0.00003
  162   -0.00007
  163    0.00036
  164    0.00371
  165    0.00093
  166    0.29961
  167    0.00452
  168    0.00129
  169    0.37758
  170    0.00008
  171   -0.00007
  172   -0.00005
  173   -0.00011
  174    0.00409
  175   -0.00975
 Ene= 0.0
 Spin= Alpha
 Occup=    -0.3086
    1    0.00001
    2   -0.00001
    3   -0.00044
    4    0.00083
    5   -0.00012
    6    0.07558
    7    0.00054
    8    0.00005
    9    0.05556
   10    0.00047
   11    0.00006
   12   -0.00054
   13   -0.00023
   14    0.02387
   15   -0.01685
   16    0.00001
   17    0.00001
   18   -0.00005
   19    0.00327
   20   -0.00066
   21    0.29169
   22    0.00260
   23   -0.00001
   24    0.23792
   25   -0.00002
   26    0.00001
   27    0.00002
   28    0.00002
   29   -0.00094
   30   -0.00073
   31    0.00000
   32    0.00003
   33    0.00028
   34    0.00134
   35   -0.00014
   36    0.11117
   37    0.00119
   38   -0.00004
   39    0.08867
   40    0.00041
   41   -0.00004
   42   -0.00035
   43    0.00014
   44    0.02028
   45    0.01511
   46   -0.00000
   47   -0.00000
   48    0.00002
   49   -0.00217
   50    0.00033
   51   -0.18339
   52   -0.00154
   53    0.00018
   54   -0.13434
   55    0.00031
   56    0.00008
   57   -0.00039
   58   -0.00027
   59    0.01581
   60   -0.02101
   61   -0.00000
   62   -0.00001
   63   -0.00002
   64   -0.00405
   65    0.00077
   66   -0.34750
   67   -0.00312
   68    0.00053
   69   -0.26792
   70   -0.00034
   71    0.00001
   72    0.00033
   73    0.00001
   74   -0.01667
   75   -0.00230
   76   -0.00000
   77   -0.00001
   78    0.00003
   79   -0.00265
   80    0.00045
   81   -0.22880
   82   -0.00196
   83    0.00026
   84   -0.16769
   85    0.00028
   86   -0.00008
   87   -0.00020
   88    0.00022
   89    0.01358
   90    0.02091
   91   -0.00002
   92   -0.00002
   93    0.00005
   94   -0.00001
   95    0.00430
   96    0.00004
   97    0.00002
   98   -0.00008
   99    0.00002
  100   -0.00697
  101    0.00001
  102    0.00001
  103   -0.00015
  104    0.00003
  105   -0.01291
  106   -0.00002
  107    0.00002
  108   -0.00010
  109    0.00002
  110   -0.00854
  111    0.00000
  112   -0.00002
  113   -0.00006
  114   -0.00017
  115    0.00000
  116   -0.01261
  117   -0.00027
  118    0.00001
  119   -0.02004
  120   -0.00001
  121    0.00001
  122    0.00001
  123   -0.00002
  124   -0.00070
  125   -0.00208
  126    0.00004
  127    0.00007
  128   -0.00000
  129    0.00000
  130   -0.00061
  131   -0.00000
  132   -0.00001
  133    0.00006
  134    0.00001
  135    0.00006
  136   -0.00274
  137   -0.00022
  138   -0.00020
  139   -0.01519
  140   -0.00040
  141    0.00003
  142    0.00036
  143    0.00004
  144   -0.01958
  145    0.00552
  146   -0.00000
  147    0.00003
  148    0.00016
  149   -0.00121
  150    0.00005
  151   -0.05314
  152   -0.00101
  153    0.00002
  154   -0.04375
  155    0.00003
  156   -0.00000
  157   -0.00003
  158    0.00004
  159    0.00062
  160    0.00210
  161    0.00000
  162   -0.00005
  163   -0.00018
  164   -0.00082
  165   -0.00020
  166   -0.11101
  167   -0.00064
  168   -0.00018
  169   -0.08984
  170    0.00002
  171   -0.00001
  172   -0.00000
  173   -0.00003
  174    0.00134
  175   -0.00454
 Ene= 0.0
 Spin= Alpha
 Occup=     0.3086
    1   -0.00001
    2   -0.00000
    3    0.00049
    4    0.00299
    5   -0.00060
    6    0.25724
    7    0.00454
    8   -0.00152
    9    0.40015
   10    0.00053
   11    0.00010
   12   -0.00063
   13   -0.00024
   14    0.02800
   15   -0.01412
   16    0.00001
   17   -0.00003
   18   -0.00113
   19    0.00070
   20   -0.00009
   21    0.08127
   22    0.00197
   23   -0.00051
   24    0.14272
   25    0.00002
   26   -0.00020
   27    0.00013
   28    0.00054
   29    0.00194
   30    0.04733
   31   -0.00001
   32   -0.00005
   33   -0.00016
   34   -0.00365
   35    0.00068
   36   -0.31307
   37   -0.00646
   38    0.00168
   39   -0.56779
   40   -0.00038
   41    0.00002
   42    0.00036
   43    0.00006
   44   -0.01785
   45    0.00238
   46    0.00000
   47   -0.00002
   48    0.00001
   49    0.00287
   50   -0.00051
   51    0.24707
   52    0.00538
   53   -0.00111
   54    0.45398
   55   -0.00052
   56   -0.00003
   57    0.00056
   58    0.00014
   59   -0.02661
   60    0.00768
   61   -0.00000
   62    0.00002
   63    0.00041
   64    0.00082
   65   -0.00014
   66    0.06996
   67    0.00130
   68   -0.00018
   69    0.11232
   70   -0.00003
   71    0.00015
   72   -0.00011
   73   -0.00045
   74   -0.00167
   75   -0.03864
   76    0.00001
   77   -0.00004
   78   -0.00052
   79   -0.00342
   80    0.00058
   81   -0.28909
   82   -0.00604
   83    0.00128
   84   -0.51702
   85    0.00034
   86    0.00002
   87   -0.00035
   88   -0.00010
   89    0.01659
   90   -0.00489
   91   -0.00002
   92    0.00055
   93   -0.00018
   94    0.00003
   95   -0.01544
   96    0.00004
   97   -0.00003
   98    0.00014
   99   -0.00002
  100    0.01247
  101   -0.00001
  102   -0.00013
  103    0.00003
  104   -0.00001
  105    0.00313
  106    0.00003
  107    0.00013
  108   -0.00017
  109    0.00003
  110   -0.01503
  111   -0.00001
  112   -0.00005
  113   -0.00003
  114   -0.00139
  115    0.00020
  116   -0.10274
  117   -0.00203
  118    0.00025
  119   -0.14902
  120   -0.00007
  121    0.00002
  122    0.00005
  123   -0.00007
  124   -0.00361
  125   -0.00672
  126    0.00016
  127    0.00042
  128   -0.00003
  129    0.00004
  130   -0.00262
  131   -0.00005
  132   -0.00004
  133    0.00071
  134   -0.00006
  135   -0.00001
  136   -0.00737
  137   -0.00021
  138    0.00003
  139   -0.02933
  140   -0.00015
  141    0.00000
  142    0.00009
  143    0.00008
  144   -0.00420
  145    0.00398
  146    0.00005
  147    0.00010
  148   -0.00041
  149   -0.00035
  150    0.00003
  151   -0.01419
  152   -0.00004
  153    0.00023
  154   -0.00215
  155   -0.00001
  156    0.00003
  157    0.00005
  158    0.00001
  159   -0.00090
  160    0.00100
  161    0.00004
  162    0.00007
  163   -0.00028
  164   -0.00011
  165   -0.00019
  166    0.00310
  167    0.00001
  168   -0.00024
  169   -0.00029
  170    0.00004
  171    0.00002
  172    0.00000
  173   -0.00001
  174    0.00178
  175   -0.00025
 Ene= 0.0
 Spin= Alpha
 Occup=    -0.0480
    1    0.00000
    2   -0.00003
    3   -0.00053
    4   -0.00035
    5   -0.00001
    6   -0.03351
    7    0.00077
    8   -0.00007
    9   -0.00425
   10   -0.00004
   11   -0.00001
   12    0.00007
   13    0.00017
   14   -0.00048
   15    0.01729
   16    0.00007
   17    0.00004
   18   -0.00165
   19   -0.00233
   20    0.00029
   21   -0.16823
   22   -0.00224
   23    0.00043
   24   -0.11619
   25    0.00011
   26   -0.00001
   27   -0.00008
   28    0.00011
   29    0.00718
   30    0.01052
   31    0.00000
   32   -0.00008
   33   -0.00040
   34   -0.00221
   35    0.00073
   36   -0.18479
   37   -0.00054
   38    0.00077
   39   -0.12326
   40    0.00012
   41    0.00007
   42   -0.00015
   43   -0.00011
   44    0.00516
   45   -0.01171
   46   -0.00002
   47   -0.00000
   48    0.00087
   49   -0.00185
   50    0.00016
   51   -0.16165
   52   -0.00084
   53    0.00001
   54   -0.10760
   55   -0.00020
   56    0.00002
   57    0.00017
   58   -0.00002
   59   -0.01024
   60   -0.00566
   61    0.00000
   62   -0.00004
   63    0.00005
   64   -0.00083
   65    0.00032
   66   -0.06799
   67   -0.00068
   68    0.00018
   69   -0.04064
   70   -0.00014
   71   -0.00003
   72    0.00017
   73    0.00014
   74   -0.00641
   75    0.00979
   76   -0.00002
   77   -0.00007
   78    0.00072
   79   -0.00004
   80   -0.00010
   81    0.00596
   82    0.00073
   83   -0.00003
   84    0.02853
   85   -0.00002
   86   -0.00002
   87    0.00003
   88    0.00006
   89   -0.00123
   90    0.00496
   91   -0.00029
   92    0.00015
   93   -0.00006
   94   -0.00000
   95   -0.00661
   96    0.00014
   97    0.00009
   98   -0.00007
   99    0.00002
  100   -0.00611
  101    0.00000
  102   -0.00004
  103   -0.00002
  104    0.00001
  105   -0.00231
  106   -0.00006
  107    0.00002
  108    0.00001
  109   -0.00000
  110    0.00136
  111    0.00001
  112    0.00006
  113    0.00003
  114    0.00093
  115    0.00001
  116    0.11591
  117    0.00077
  118    0.00000
  119    0.09191
  120    0.00003
  121    0.00001
  122   -0.00004
  123   -0.00003
  124    0.00156
  125   -0.00259
  126   -0.00031
  127    0.00016
  128    0.00020
  129   -0.00003
  130    0.00860
  131   -0.00006
  132   -0.00008
  133    0.00071
  134    0.00042
  135   -0.00008
  136    0.01480
  137   -0.00015
  138    0.00007
  139    0.02028
  140    0.00016
  141    0.00035
  142   -0.00059
  143    0.00059
  144    0.01341
  145    0.04928
  146   -0.00001
  147   -0.00006
  148    0.00001
  149    0.00425
  150    0.00159
  151    0.40581
  152    0.00349
  153    0.00122
  154    0.32639
  155   -0.00024
  156   -0.00009
  157    0.00032
  158   -0.00019
  159   -0.01173
  160   -0.01296
  161   -0.00000
  162    0.00002
  163    0.00006
  164   -0.00438
  165   -0.00099
  166   -0.30665
  167   -0.00347
  168   -0.00080
  169   -0.24886
  170    0.00015
  171   -0.00006
  172   -0.00008
  173   -0.00013
  174    0.00702
  175   -0.01078
 Ene= 0.0
 Spin= Alpha
 Occup=     0.0480
    1    0.00001
    2    0.00001
    3   -0.00070
    4   -0.00329
    5    0.00064
    6   -0.27521
    7   -0.00443
    8    0.00166
    9   -0.37107
   10    0.00049
   11    0.00002
   12   -0.00053
   13   -0.00015
   14    0.02447
   15   -0.01202
   16   -0.00001
   17   -0.00005
   18    0.00021
   19    0.00314
   20   -0.00071
   21    0.27177
   22    0.00442
   23    0.00022
   24    0.41648
   25    0.00058
   26    0.00005
   27   -0.00065
   28   -0.00018
   29    0.02964
   30   -0.01458
   31   -0.00002
   32    0.00007
   33    0.00092
   34   -0.00096
   35    0.00023
   36   -0.09616
   37   -0.00096
   38    0.00034
   39   -0.13773
   40    0.00056
   41   -0.00007
   42   -0.00049
   43    0.00017
   44    0.02719
   45    0.01735
   46   -0.00002
   47    0.00001
   48    0.00067
   49   -0.00211
   50    0.00028
   51   -0.17429
   52   -0.00395
   53    0.00033
   54   -0.33990
   55   -0.00044
   56   -0.00008
   57    0.00049
   58    0.00027
   59   -0.02133
   60    0.01964
   61   -0.00000
   62    0.00001
   63   -0.00011
   64    0.00356
   65   -0.00069
   66    0.31172
   67    0.00597
   68   -0.00139
   69    0.53661
   70   -0.00019
   71   -0.00003
   72    0.00020
   73    0.00009
   74   -0.00894
   75    0.00633
   76   -0.00001
   77    0.00002
   78    0.00045
   79   -0.00118
   80    0.00023
   81   -0.10701
   82   -0.00210
   83   -0.00017
   84   -0.17539
   85   -0.00074
   86    0.00005
   87    0.00068
   88   -0.00013
   89   -0.03699
   90   -0.01786
   91   -0.00001
   92   -0.00065
   93   -0.00005
   94    0.00001
   95   -0.00450
   96   -0.00002
   97   -0.00066
   98   -0.00011
   99    0.00002
  100   -0.00934
  101   -0.00002
  102   -0.00032
  103    0.00018
  104   -0.00003
  105    0.01583
  106    0.00001
  107    0.00012
  108   -0.00006
  109    0.00001
  110   -0.00482
  111    0.00000
  112    0.00008
  113    0.00006
  114    0.00179
  115   -0.00031
  116    0.12523
  117    0.00238
  118   -0.00031
  119    0.16178
  120    0.00014
  121   -0.00002
  122   -0.00013
  123    0.00003
  124    0.00739
  125    0.00493
  126   -0.00031
  127   -0.00040
  128    0.00012
  129   -0.00004
  130    0.00879
  131   -0.00001
  132   -0.00003
  133   -0.00002
  134    0.00145
  135    0.00039
  136    0.12683
  137    0.00089
  138   -0.00015
  139    0.09546
  140   -0.00055
  141   -0.00002
  142    0.00056
  143   -0.00001
  144   -0.02791
  145   -0.00175
  146   -0.00001
  147    0.00012
  148    0.00060
  149   -0.00228
  150   -0.00054
  151   -0.16440
  152   -0.00224
  153   -0.00067
  154   -0.15872
  155    0.00000
  156    0.00000
  157   -0.00002
  158    0.00003
  159    0.00016
  160    0.00161