[Molden Format]
[Title]
Written by TeraChem
[Atoms] Angs
C   1   6      2.11486    1.18872    0.00109
C   2   6      2.76911   -0.05309   -0.00895
C   3   6      2.04304   -1.25050   -0.00300
C   4   6      0.66644   -1.22550    0.01291
C   5   6      0.00008   -0.00334    0.02325
C   6   6      0.71478    1.18509    0.01745
H   7   1      2.58029   -2.18421   -0.01105
H   8   1      0.11285   -2.15359    0.01756
H   9   1     -1.08084    0.02552    0.03582
H   10   1      0.21570    2.14290    0.02519
O   11   8      2.70716    2.39093   -0.00304
H   12   1      3.64980    2.28964   -0.01702
N   13   7      4.22168   -0.14829   -0.02560
O   14   8      4.86556    0.87173   -0.03660
O   15   8      4.71978   -1.23549   -0.02791
[GTO]
    1 0
 s    8 1.00
         6665.000000             0.000692
         1000.000000             0.005326
          228.000000             0.027061
           64.710000             0.101657
           21.060000             0.274575
            7.495000             0.448294
            2.797000             0.284903
            0.521500             0.015195
 s    8 1.00
         6665.000000            -0.000293
         1000.000000            -0.002318
          228.000000            -0.011500
           64.710000            -0.046827
           21.060000            -0.128466
            7.495000            -0.301266
            2.797000            -0.255631
            0.521500             1.093793
 s    1 1.00
            0.159600             1.000000
 p    3 1.00
            9.439000             0.056979
            2.002000             0.313207
            0.545600             0.760377
 p    1 1.00
            0.151700             1.000000
 d    1 1.00
            0.550000             1.000000

    2 0
 s    8 1.00
         6665.000000             0.000692
         1000.000000             0.005326
          228.000000             0.027061
           64.710000             0.101657
           21.060000             0.274575
            7.495000             0.448294
            2.797000             0.284903
            0.521500             0.015195
 s    8 1.00
         6665.000000            -0.000293
         1000.000000            -0.002318
          228.000000            -0.011500
           64.710000            -0.046827
           21.060000            -0.128466
            7.495000            -0.301266
            2.797000            -0.255631
            0.521500             1.093793
 s    1 1.00
            0.159600             1.000000
 p    3 1.00
            9.439000             0.056979
            2.002000             0.313207
            0.545600             0.760377
 p    1 1.00
            0.151700             1.000000
 d    1 1.00
            0.550000             1.000000

    3 0
 s    8 1.00
         6665.000000             0.000692
         1000.000000             0.005326
          228.000000             0.027061
           64.710000             0.101657
           21.060000             0.274575
            7.495000             0.448294
            2.797000             0.284903
            0.521500             0.015195
 s    8 1.00
         6665.000000            -0.000293
         1000.000000            -0.002318
          228.000000            -0.011500
           64.710000            -0.046827
           21.060000            -0.128466
            7.495000            -0.301266
            2.797000            -0.255631
            0.521500             1.093793
 s    1 1.00
            0.159600             1.000000
 p    3 1.00
            9.439000             0.056979
            2.002000             0.313207
            0.545600             0.760377
 p    1 1.00
            0.151700             1.000000
 d    1 1.00
            0.550000             1.000000

    4 0
 s    8 1.00
         6665.000000             0.000692
         1000.000000             0.005326
          228.000000             0.027061
           64.710000             0.101657
           21.060000             0.274575
            7.495000             0.448294
            2.797000             0.284903
            0.521500             0.015195
 s    8 1.00
         6665.000000            -0.000293
         1000.000000            -0.002318
          228.000000            -0.011500
           64.710000            -0.046827
           21.060000            -0.128466
            7.495000            -0.301266
            2.797000            -0.255631
            0.521500             1.093793
 s    1 1.00
            0.159600             1.000000
 p    3 1.00
            9.439000             0.056979
            2.002000             0.313207
            0.545600             0.760377
 p    1 1.00
            0.151700             1.000000
 d    1 1.00
            0.550000             1.000000

    5 0
 s    8 1.00
         6665.000000             0.000692
         1000.000000             0.005326
          228.000000             0.027061
           64.710000             0.101657
           21.060000             0.274575
            7.495000             0.448294
            2.797000             0.284903
            0.521500             0.015195
 s    8 1.00
         6665.000000            -0.000293
         1000.000000            -0.002318
          228.000000            -0.011500
           64.710000            -0.046827
           21.060000            -0.128466
            7.495000            -0.301266
            2.797000            -0.255631
            0.521500             1.093793
 s    1 1.00
            0.159600             1.000000
 p    3 1.00
            9.439000             0.056979
            2.002000             0.313207
            0.545600             0.760377
 p    1 1.00
            0.151700             1.000000
 d    1 1.00
            0.550000             1.000000

    6 0
 s    8 1.00
         6665.000000             0.000692
         1000.000000             0.005326
          228.000000             0.027061
           64.710000             0.101657
           21.060000             0.274575
            7.495000             0.448294
            2.797000             0.284903
            0.521500             0.015195
 s    8 1.00
         6665.000000            -0.000293
         1000.000000            -0.002318
          228.000000            -0.011500
           64.710000            -0.046827
           21.060000            -0.128466
            7.495000            -0.301266
            2.797000            -0.255631
            0.521500             1.093793
 s    1 1.00
            0.159600             1.000000
 p    3 1.00
            9.439000             0.056979
            2.002000             0.313207
            0.545600             0.760377
 p    1 1.00
            0.151700             1.000000
 d    1 1.00
            0.550000             1.000000

    7 0
 s    3 1.00
           13.010000             0.033499
            1.962000             0.234801
            0.444600             0.813683
 s    1 1.00
            0.122000             1.000000
 p    1 1.00
            0.727000             1.000000

    8 0
 s    3 1.00
           13.010000             0.033499
            1.962000             0.234801
            0.444600             0.813683
 s    1 1.00
            0.122000             1.000000
 p    1 1.00
            0.727000             1.000000

    9 0
 s    3 1.00
           13.010000             0.033499
            1.962000             0.234801
            0.444600             0.813683
 s    1 1.00
            0.122000             1.000000
 p    1 1.00
            0.727000             1.000000

   10 0
 s    3 1.00
           13.010000             0.033499
            1.962000             0.234801
            0.444600             0.813683
 s    1 1.00
            0.122000             1.000000
 p    1 1.00
            0.727000             1.000000

   11 0
 s    8 1.00
        11720.000000             0.000710
         1759.000000             0.005467
          400.800000             0.027823
          113.700000             0.104748
           37.030000             0.282921
           13.270000             0.448495
            5.025000             0.270817
            1.013000             0.015450
 s    8 1.00
        11720.000000            -0.000314
         1759.000000            -0.002482
          400.800000            -0.012316
          113.700000            -0.050539
           37.030000            -0.139385
           13.270000            -0.325077
            5.025000            -0.229848
            1.013000             1.095379
 s    1 1.00
            0.302300             1.000000
 p    3 1.00
           17.700000             0.062679
            3.854000             0.333537
            1.046000             0.741240
 p    1 1.00
            0.275300             1.000000
 d    1 1.00
            1.185000             1.000000

   12 0
 s    3 1.00
           13.010000             0.033499
            1.962000             0.234801
            0.444600             0.813683
 s    1 1.00
            0.122000             1.000000
 p    1 1.00
            0.727000             1.000000

   13 0
 s    8 1.00
         9046.000000             0.000700
         1357.000000             0.005386
          309.300000             0.027391
           87.730000             0.103151
           28.560000             0.278571
           10.210000             0.448295
            3.838000             0.278086
            0.746600             0.015432
 s    8 1.00
         9046.000000            -0.000305
         1357.000000            -0.002408
          309.300000            -0.011944
           87.730000            -0.048926
           28.560000            -0.134473
           10.210000            -0.315113
            3.838000            -0.242858
            0.746600             1.094382
 s    1 1.00
            0.224800             1.000000
 p    3 1.00
           13.550000             0.058906
            2.917000             0.320461
            0.797300             0.753042
 p    1 1.00
            0.218500             1.000000
 d    1 1.00
            0.817000             1.000000

   14 0
 s    8 1.00
        11720.000000             0.000710
         1759.000000             0.005467
          400.800000             0.027823
          113.700000             0.104748
           37.030000             0.282921
           13.270000             0.448495
            5.025000             0.270817
            1.013000             0.015450
 s    8 1.00
        11720.000000            -0.000314
         1759.000000            -0.002482
          400.800000            -0.012316
          113.700000            -0.050539
           37.030000            -0.139385
           13.270000            -0.325077
            5.025000            -0.229848
            1.013000             1.095379
 s    1 1.00
            0.302300             1.000000
 p    3 1.00
           17.700000             0.062679
            3.854000             0.333537
            1.046000             0.741240
 p    1 1.00
            0.275300             1.000000
 d    1 1.00
            1.185000             1.000000

   15 0
 s    8 1.00
        11720.000000             0.000710
         1759.000000             0.005467
          400.800000             0.027823
          113.700000             0.104748
           37.030000             0.282921
           13.270000             0.448495
            5.025000             0.270817
            1.013000             0.015450
 s    8 1.00
        11720.000000            -0.000314
         1759.000000            -0.002482
          400.800000            -0.012316
          113.700000            -0.050539
           37.030000            -0.139385
           13.270000            -0.325077
            5.025000            -0.229848
            1.013000             1.095379
 s    1 1.00
            0.302300             1.000000
 p    3 1.00
           17.700000             0.062679
            3.854000             0.333537
            1.046000             0.741240
 p    1 1.00
            0.275300             1.000000
 d    1 1.00
            1.185000             1.000000

[MO]
 Ene= 0.0
 Spin= Alpha
 Occup=    -0.5278
    1    0.00000
    2    0.00002
    3    0.00001
    4   -0.00285
    5    0.00049
    6   -0.24253
    7   -0.00204
    8    0.00051
    9   -0.17442
   10    0.00049
   11   -0.00008
   12   -0.00041
   13    0.00012
   14    0.02274
   15    0.01305
   16   -0.00001
   17   -0.00002
   18    0.00027
   19   -0.00013
   20   -0.00001
   21   -0.02014
   22   -0.00041
   23    0.00007
   24   -0.03854
   25   -0.00004
   26    0.00010
   27   -0.00007
   28   -0.00037
   29   -0.00235
   30   -0.03147
   31    0.00000
   32    0.00003
   33    0.00005
   34    0.00333
   35   -0.00063
   36    0.29001
   37    0.00270
   38   -0.00061
   39    0.24227
   40   -0.00038
   41   -0.00001
   42    0.00039
   43    0.00006
   44   -0.01927
   45    0.00204
   46    0.00000
   47   -0.00001
   48   -0.00010
   49    0.00332
   50   -0.00055
   51    0.28439
   52    0.00255
   53   -0.00039
   54    0.22148
   55    0.00040
   56   -0.00001
   57   -0.00039
   58   -0.00003
   59    0.02019
   60    0.00166
   61    0.00000
   62   -0.00001
   63   -0.00012
   64   -0.00009
   65   -0.00004
   66   -0.00612
   67   -0.00010
   68   -0.00003
   69   -0.00655
   70   -0.00001
   71    0.00011
   72   -0.00009
   73   -0.00035
   74   -0.00094
   75   -0.03016
   76   -0.00001
   77    0.00002
   78    0.00010
   79   -0.00316
   80    0.00062
   81   -0.27674
   82   -0.00267
   83    0.00040
   84   -0.23053
   85   -0.00035
   86   -0.00002
   87    0.00037
   88    0.00008
   89   -0.01740
   90    0.00430
   91    0.00002
   92   -0.00012
   93    0.00012
   94   -0.00002
   95    0.01088
   96   -0.00002
   97   -0.00001
   98    0.00013
   99   -0.00002
  100    0.01080
  101    0.00002
  102    0.00002
  103   -0.00000
  104   -0.00000
  105   -0.00013
  106    0.00004
  107    0.00001
  108   -0.00012
  109    0.00002
  110   -0.01007
  111   -0.00000
  112    0.00007
  113    0.00017
  114    0.00254
  115   -0.00049
  116    0.18586
  117    0.00248
  118   -0.00044
  119    0.17992
  120    0.00011
  121    0.00000
  122   -0.00012
  123   -0.00001
  124    0.00554
  125    0.00116
  126   -0.00022
  127   -0.00014
  128    0.00015
  129   -0.00004
  130    0.01022
  131    0.00001
  132    0.00001
  133   -0.00010
  134   -0.00026
  135   -0.00005
  136   -0.01921
  137   -0.00016
  138   -0.00003
  139   -0.01093
  140    0.00004
  141   -0.00005
  142    0.00001
  143   -0.00008
  144    0.00093
  145   -0.00651
  146   -0.00000
  147   -0.00002
  148    0.00002
  149   -0.00017
  150   -0.00021
  151   -0.02997
  152   -0.00006
  153   -0.00018
  154   -0.01862
  155    0.00003
  156    0.00001
  157   -0.00004
  158    0.00002
  159    0.00145
  160    0.00169
  161   -0.00001
  162   -0.00004
  163    0.00001
  164    0.00054
  165    0.00015
  166    0.04196
  167    0.00047
  168    0.00015
  169    0.03714
  170   -0.00002
  171    0.00000
  172    0.00001
  173    0.00001
  174   -0.00106
  175    0.00084
 Ene= 0.0
 Spin= Alpha
 Occup=     0.5278
    1   -0.00000
    2   -0.00013
    3   -0.00116
    4   -0.00397
    5    0.00089
    6   -0.32848
    7   -0.00541
    8    0.00221
    9   -0.48355
   10   -0.00040
   11   -0.00009
   12    0.00046
   13    0.00025
   14   -0.02029
   15    0.01367
   16   -0.00000
   17    0.00001
   18    0.00050
   19   -0.00005
   20   -0.00009
   21   -0.01895
   22   -0.00082
   23    0.00132
   24   -0.05058
   25    0.00050
   26    0.00016
   27   -0.00063
   28   -0.00045
   29    0.02369
   30   -0.04517
   31    0.00001
   32    0.00013
   33    0.00074
   34    0.00252
   35   -0.00022
   36    0.20753
   37    0.00480
   38   -0.00033
   39    0.40245
   40    0.00044
   41    0.00000
   42   -0.00039
   43   -0.00004
   44    0.01970
   45   -0.00128
   46   -0.00000
   47   -0.00003
   48   -0.00023
   49   -0.00272
   50    0.00048
   51   -0.22998
   52   -0.00490
   53    0.00083
   54   -0.41716
   55    0.00028
   56    0.00001
   57   -0.00031
   58   -0.00004
   59    0.01508
   60   -0.00266
   61    0.00000
   62   -0.00004
   63   -0.00053
   64    0.00022
   65   -0.00004
   66    0.02089
   67   -0.00007
   68   -0.00024
   69   -0.00051
   70    0.00001
   71   -0.00014
   72    0.00012
   73    0.00041
   74    0.00038
   75    0.03484
   76   -0.00002
   77    0.00008
   78    0.00109
   79    0.00304
   80   -0.00048
   81    0.24801
   82    0.00543
   83   -0.00137
   84    0.45671
   85   -0.00052
   86   -0.00001
   87    0.00053
   88    0.00008
   89   -0.02606
   90    0.00113
   91    0.00004
   92    0.00020
   93    0.00013
   94   -0.00001
   95    0.01043
   96    0.00002
   97    0.00016
   98   -0.00013
   99    0.00002
  100   -0.01152
  101    0.00003
  102    0.00017
  103    0.00002
  104    0.00000
  105    0.00099
  106   -0.00005
  107   -0.00023
  108    0.00015
  109   -0.00002
  110    0.01335
  111    0.00001
  112    0.00013
  113    0.00013
  114    0.00194
  115   -0.00030
  116    0.13496
  117    0.00277
  118   -0.00029
  119    0.18899
  120    0.00010
  121   -0.00003
  122   -0.00008
  123    0.00007
  124    0.00540
  125    0.00786
  126   -0.00028
  127   -0.00094
  128    0.00001
  129   -0.00004
  130    0.00283
  131    0.00003
  132    0.00002
  133   -0.00046
  134    0.00268
  135    0.00076
  136    0.23322
  137    0.00286
  138    0.00042
  139    0.26162
  140   -0.00017
  141    0.00002
  142    0.00020
  143   -0.00006
  144   -0.01115
  145    0.00068
  146   -0.00005
  147   -0.00005
  148    0.00063
  149   -0.00139
  150   -0.00045
  151   -0.12783
  152   -0.00203
  153   -0.00076
  154   -0.16776
  155   -0.00005
  156   -0.00006
  157    0.00002
  158   -0.00006
  159   -0.00170
  160   -0.00468
  161   -0.00003
  162   -0.00007
  163    0.00003
  164   -0.00196
  165   -0.00042
  166   -0.18145
  167   -0.00230
  168   -0.00050
  169   -0.20247
  170   -0.00007
  171    0.00000
  172    0.00002
  173    0.00003
  174   -0.00302
  175    0.00256
 Ene= 0.0
 Spin= Alpha
 Occup=    -0.1844
    1    0.00001
    2    0.00006
    3    0.00000
    4    0.00195
    5   -0.00038
    6    0.15223
    7    0.00040
    8   -0.00001
    9    0.07778
   10    0.00013
   11    0.00015
   12   -0.00028
   13   -0.00043
   14    0.00739
   15   -0.03695
   16   -0.00003
   17   -0.00004
   18    0.00069
   19    0.00447
   20   -0.00066
   21    0.40006
   22    0.00381
   23   -0.00025
   24    0.32057
   25   -0.00018
   26    0.00001
   27    0.00015
   28    0.00001
   29   -0.00838
   30   -0.00187
   31    0.00000
   32   -0.00000
   33    0.00023
   34    0.00224
   35   -0.00048
   36    0.19377
   37    0.00131
   38   -0.00040
   39    0.12597
   40    0.00030
   41   -0.00008
   42   -0.00022
   43    0.00022
   44    0.01532
   45    0.02367
   46    0.00001
   47    0.00002
   48   -0.00023
   49   -0.00065
   50    0.00017
   51   -0.05440
   52   -0.00099
   53    0.00017
   54   -0.07820
   55    0.00031
   56    0.00003
   57   -0.00033
   58   -0.00012
   59    0.01548
   60   -0.00664
   61    0.00000
   62    0.00000
   63   -0.00008
   64   -0.00144
   65    0.00022
   66   -0.12771
   67   -0.00103
   68    0.00009
   69   -0.09848
   70   -0.00006
   71    0.00000
   72    0.00006
   73    0.00001
   74   -0.00304
   75    0.00078
   76    0.00002
   77   -0.00002
   78   -0.00051
   79   -0.00062
   80    0.00016
   81   -0.04135
   82   -0.00089
   83    0.00000
   84   -0.04385
   85    0.00027
   86   -0.00001
   87   -0.00025
   88    0.00002
   89    0.01385
   90    0.00512
   91    0.00007
   92   -0.00009
   93    0.00008
   94   -0.00001
   95    0.00698
   96   -0.00005
   97   -0.00005
   98   -0.00003
   99    0.00000
  100   -0.00267
  101   -0.00003
  102    0.00003
  103   -0.00006
  104    0.00001
  105   -0.00483
  106    0.00013
  107    0.00012
  108   -0.00002
  109    0.00000
  110   -0.00270
  111   -0.00000
  112   -0.00007
  113   -0.00014
  114   -0.00257
  115    0.00038
  116   -0.21901
  117   -0.00224
  118    0.00034
  119   -0.18627
  120   -0.00008
  121   -0.00001
  122    0.00010
  123    0.00003
  124   -0.00383
  125    0.00215
  126    0.00030
  127   -0.00004
  128   -0.00023
  129    0.00004
  130   -0.01225
  131    0.00003
  132    0.00003
  133   -0.00036
  134   -0.00023
  135    0.00017
  136   -0.02856
  137   -0.00038
  138   -0.00037
  139   -0.04672
  140   -0.00053
  141   -0.00010
  142    0.00068
  143   -0.00016
  144   -0.02709
  145   -0.02034
  146    0.00001
  147    0.00008
  148    0.00020
  149   -0.00317
  150   -0.00140
  151   -0.26524
  152   -0.00261
  153   -0.00106
  154   -0.21127
  155    0.00014
  156    0.00008
  157   -0.00022
  158    0.00015
  159    0.00733
  160    0.00934
  161    0.00000
  162   -0.00007
  163   -0.00022
  164    0.00038
  165   -0.00031
  166    0.05312
  167    0.00043
  168   -0.00021
  169    0.04820
  170   -0.00002
  171   -0.00002
  172    0.00004
  173    0.00001
  174   -0.00202
  175    0.00058
 Ene= 0.0
 Spin= Alpha
 Occup=     0.1844
    1   -0.00002
    2   -0.00030
    3   -0.00094
    4   -0.00007
    5    0.00025
    6    0.01865
    7    0.00080
    8    0.00050
    9    0.06011
   10    0.00018
   11    0.00003
   12   -0.00025
   13    0.00005
   14    0.01088
   15    0.00282
   16    0.00001
   17   -0.00006
   18   -0.00137
   19    0.00012
   20   -0.00011
   21    0.02561
   22    0.00090
   23    0.00152
   24    0.02736
   25    0.00087
   26   -0.00016
   27   -0.00076
   28    0.00035
   29    0.04264
   30    0.01842
   31    0.00002
   32    0.00014
   33    0.00091
   34   -0.00251
   35    0.00097
   36   -0.23110
   37   -0.00434
   38    0.00300
   39   -0.38230
   40   -0.00020
   41    0.00009
   42    0.00023
   43   -0.00002
   44   -0.01148
   45   -0.00533
   46    0.00001
   47   -0.00012
   48   -0.00102
   49    0.00177
   50   -0.00026
   51    0.16210
   52    0.00374
   53   -0.00090
   54    0.32071
   55   -0.00039
   56   -0.00000
   57    0.00039
   58    0.00010
   59   -0.01881
   60    0.00195
   61    0.00001
   62   -0.00005
   63   -0.00020
   64    0.00054
   65   -0.00009
   66    0.04647
   67   -0.00005
   68   -0.00027
   69   -0.00749
   70    0.00003
   71    0.00006
   72   -0.00008
   73   -0.00021
   74    0.00057
   75   -0.01864
   76   -0.00001
   77    0.00009
   78    0.00082
   79   -0.00097
   80    0.00025
   81   -0.09988
   82   -0.00150
   83    0.00012
   84   -0.14191
   85    0.00003
   86    0.00000
   87   -0.00001
   88    0.00002
   89    0.00020
   90    0.00053
   91    0.00011
   92    0.00206
   93   -0.00012
   94    0.00004
   95   -0.01109
   96    0.00014
   97    0.00063
   98    0.00010
   99   -0.00001
  100    0.00878
  101    0.00004
  102    0.00026
  103    0.00002
  104    0.00001
  105    0.00140
  106   -0.00003
  107   -0.00023
  108   -0.00005
  109    0.00001
  110   -0.00439
  111    0.00000
  112    0.00011
  113    0.00020
  114    0.00038
  115   -0.00015
  116    0.00339
  117    0.00034
  118    0.00004
  119   -0.00710
  120   -0.00000
  121   -0.00001
  122    0.00000
  123   -0.00003
  124   -0.00017
  125   -0.00123
  126   -0.00005
  127   -0.00093
  128   -0.00012
  129    0.00002
  130   -0.00456
  131   -0.00003
  132   -0.00000
  133    0.00049
  134    0.00514
  135    0.00146
  136    0.44028
  137    0.00554
  138    0.00108
  139    0.46583
  140   -0.00050
  141   -0.00000
  142    0.00047
  143   -0.00008
  144   -0.02227
  145   -0.00013
  146    0.00001
  147    0.00006
  148    0.00014
  149   -0.00387
  150   -0.00095
  151   -0.32555
  152   -0.00440
  153   -0.00104
  154   -0.37178
  155   -0.00006
  156   -0.00004
  157    0.00011
  158   -0.00008
  159   -0.00352
  160   -0.00612
  161    0.00004
  162    0.00006
  163   -0.00050
  164   -0.00308
  165   -0.00090
  166   -0.25314
  167   -0.00374
  168   -0.00123
  169   -0.32257
  170   -0.00006
  171    0.00006
  172    0.00006
  173    0.00009
  174   -0.00349
  175    0.00838
 Ene= 0.0
 Spin= Alpha
 Occup=    -0.0692
    1    0.00001
    2   -0.00007
    3   -0.00088
    4    0.00005
    5   -0.00001
    6    0.00654
    7    0.00096
    8    0.00003
    9    0.02779
   10    0.00037
   11    0.00005
   12   -0.00041
   13   -0.00010
   14    0.02010
   15   -0.00222
   16    0.00006
   17    0.00010
   18   -0.00119
   19    0.00107
   20   -0.00033
   21    0.11375
   22    0.00043
   23    0.00026
   24    0.10630
   25    0.00003
   26    0.00002
   27   -0.00001
   28    0.00004
   29    0.00247
   30    0.00320
   31    0.00000
   32    0.00000
   33   -0.00008
   34    0.00022
   35    0.00022
   36    0.01432
   37    0.00084
   38    0.00039
   39    0.00491
   40    0.00025
   41    0.00001
   42   -0.00023
   43    0.00007
   44    0.01184
   45    0.00495
   46   -0.00002
   47   -0.00003
   48    0.00065
   49   -0.00177
   50    0.00017
   51   -0.14747
   52   -0.00072
   53   -0.00002
   54   -0.08798
   55    0.00014
   56    0.00006
   57   -0.00022
   58   -0.00018
   59    0.00752
   60   -0.01580
   61    0.00000
   62   -0.00001
   63    0.00005
   64   -0.00297
   65    0.00070
   66   -0.25716
   67   -0.00237
   68    0.00047
   69   -0.18933
   70   -0.00030
   71    0.00002
   72    0.00028
   73    0.00001
   74   -0.01419
   75   -0.00251
   76   -0.00002
   77   -0.00007
   78    0.00065
   79   -0.00241
   80    0.00029
   81   -0.19910
   82   -0.00140
   83    0.00025
   84   -0.15343
   85    0.00013
   86   -0.00006
   87   -0.00008
   88    0.00018
   89    0.00613
   90    0.01640
   91   -0.00014
   92    0.00006
   93    0.00001
   94   -0.00001
   95    0.00053
   96    0.00013
   97    0.00007
   98   -0.00007
   99    0.00002
  100   -0.00564
  101   -0.00003
  102   -0.00006
  103   -0.00010
  104    0.00003
  105   -0.00938
  106   -0.00008
  107    0.00006
  108   -0.00009
  109    0.00002
  110   -0.00694
  111    0.00001
  112    0.00003
  113   -0.00004
  114    0.00014
  115    0.00018
  116    0.06009
  117    0.00009
  118    0.00011
  119    0.04343
  120    0.00002
  121    0.00001
  122   -0.00002
  123   -0.00002
  124    0.00098
  125   -0.00245
  126   -0.00028
  127    0.00026
  128    0.00017
  129   -0.00002
  130    0.00594
  131   -0.00005
  132   -0.00008
  133    0.00068
  134    0.00010
  135   -0.00014
  136   -0.00354
  137   -0.00044
  138   -0.00007
  139   -0.00852
  140   -0.00017
  141    0.00028
  142   -0.00019
  143    0.00045
  144   -0.00543
  145    0.04620
  146   -0.00002
  147   -0.00006
  148    0.00006
  149    0.00236
  150    0.00182
  151    0.29743
  152    0.00199
  153    0.00139
  154    0.24155
  155   -0.00015
  156   -0.00009
  157    0.00024
  158   -0.00012
  159   -0.00903
  160   -0.00875
  161    0.00000
  162   -0.00002
  163   -0.00009
  164   -0.00350
  165   -0.00052
  166   -0.35240
  167   -0.00278
  168   -0.00046
  169   -0.28320
  170    0.00012
  171   -0.00004
  172   -0.00007
  173   -0.00012
  174    0.00728
  175   -0.01341
 Ene= 0.0
 Spin= Alpha
 Occup=     0.0692
    1   -0.00002
    2   -0.00020
    3   -0.00010
    4    0.00197
    5   -0.00021
    6    0.17718
    7    0.00303
    8   -0.00074
    9    0.23956
   10   -0.00068
   11   -0.00006
   12    0.00073
   13    0.00032
   14   -0.03369
   15    0.02247
   16    0.00001
   17    0.00004
   18   -0.00059
   19   -0.00375
   20    0.00076
   21   -0.32679
   22   -0.00529
   23    0.00106
   24   -0.51271
   25   -0.00008
   26   -0.00006
   27    0.00014
   28    0.00016
   29   -0.00540
   30    0.00378
   31    0.00003
   32    0.00005
   33   -0.00017
   34    0.00126
   35    0.00001
   36    0.11297
   37    0.00154
   38    0.00071
   39    0.18418
   40   -0.00057
   41    0.00011
   42    0.00052
   43   -0.00022
   44   -0.02937
   45   -0.02383
   46    0.00002
   47   -0.00006
   48   -0.00106
   49    0.00218
   50   -0.00029
   51    0.18689
   52    0.00414
   53   -0.00058
   54    0.36490
   55    0.00048
   56    0.00009
   57   -0.00056
   58   -0.00030
   59    0.02411
   60   -0.02310
   61   -0.00000
   62   -0.00003
   63    0.00015
   64   -0.00383
   65    0.00073
   66   -0.33124
   67   -0.00722
   68    0.00143
   69   -0.63515
   70    0.00025
   71   -0.00000
   72   -0.00024
   73   -0.00003
   74    0.01154
   75   -0.00058
   76   -0.00000
   77    0.00007
   78    0.00047
   79    0.00235
   80   -0.00035
   81    0.19625
   82    0.00429
   83   -0.00024
   84    0.35464
   85    0.00063
   86   -0.00007
   87   -0.00056
   88    0.00020
   89    0.03137
   90    0.02153
   91    0.00008
   92    0.00157
   93    0.00007
   94   -0.00000
   95    0.00544
   96    0.00008
   97    0.00075
   98    0.00012
   99   -0.00001
  100    0.01024
  101    0.00004
  102    0.00019
  103   -0.00020
  104    0.00004
  105   -0.01741
  106   -0.00005
  107   -0.00062
  108    0.00012
  109   -0.00002
  110    0.00988
  111   -0.00000
  112    0.00001
  113    0.00007
  114   -0.00098
  115    0.00015
  116   -0.08089
  117   -0.00134
  118    0.00025
  119   -0.10405
  120   -0.00012
  121    0.00000
  122    0.00012
  123   -0.00002
  124   -0.00624
  125   -0.00270
  126    0.00022
  127   -0.00035
  128   -0.00019
  129    0.00004
  130   -0.01111
  131    0.00001
  132    0.00003
  133   -0.00003
  134    0.00182
  135    0.00054
  136    0.15333
  137    0.00275
  138    0.00085
  139    0.21558
  140    0.00036
  141    0.00001
  142   -0.00036
  143   -0.00008
  144    0.01838
  145   -0.00034
  146   -0.00001
  147   -0.00014
  148   -0.00035
  149    0.00016
  150   -0.00007
  151   -0.02594
  152   -0.00039
  153   -0.00008
  154   -0.06843
  155   -0.00004
  156   -0.00004
  157    0.00007
  158   -0.00009
  159   -0.00203
  160   -0.00629