[Molden Format]
[Title]
Written by TeraChem
[Atoms] Angs
C   1   6      2.11486    1.18872    0.00109
C   2   6      2.76911   -0.05309   -0.00895
C   3   6      2.04304   -1.25050   -0.00300
C   4   6      0.66644   -1.22550    0.01291
C   5   6      0.00008   -0.00334    0.02325
C   6   6      0.71478    1.18509    0.01745
H   7   1      2.58029   -2.18421   -0.01105
H   8   1      0.11285   -2.15359    0.01756
H   9   1     -1.08084    0.02552    0.03582
H   10   1      0.21570    2.14290    0.02519
O   11   8      2.70716    2.39093   -0.00304
H   12   1      3.64980    2.28964   -0.01702
N   13   7      4.22168   -0.14829   -0.02560
O   14   8      4.86556    0.87173   -0.03660
O   15   8      4.71978   -1.23549   -0.02791
[GTO]
    1 0
 s    8 1.00
         6665.000000             0.000692
         1000.000000             0.005326
          228.000000             0.027061
           64.710000             0.101657
           21.060000             0.274575
            7.495000             0.448294
            2.797000             0.284903
            0.521500             0.015195
 s    8 1.00
         6665.000000            -0.000293
         1000.000000            -0.002318
          228.000000            -0.011500
           64.710000            -0.046827
           21.060000            -0.128466
            7.495000            -0.301266
            2.797000            -0.255631
            0.521500             1.093793
 s    1 1.00
            0.159600             1.000000
 p    3 1.00
            9.439000             0.056979
            2.002000             0.313207
            0.545600             0.760377
 p    1 1.00
            0.151700             1.000000
 d    1 1.00
            0.550000             1.000000

    2 0
 s    8 1.00
         6665.000000             0.000692
         1000.000000             0.005326
          228.000000             0.027061
           64.710000             0.101657
           21.060000             0.274575
            7.495000             0.448294
            2.797000             0.284903
            0.521500             0.015195
 s    8 1.00
         6665.000000            -0.000293
         1000.000000            -0.002318
          228.000000            -0.011500
           64.710000            -0.046827
           21.060000            -0.128466
            7.495000            -0.301266
            2.797000            -0.255631
            0.521500             1.093793
 s    1 1.00
            0.159600             1.000000
 p    3 1.00
            9.439000             0.056979
            2.002000             0.313207
            0.545600             0.760377
 p    1 1.00
            0.151700             1.000000
 d    1 1.00
            0.550000             1.000000

    3 0
 s    8 1.00
         6665.000000             0.000692
         1000.000000             0.005326
          228.000000             0.027061
           64.710000             0.101657
           21.060000             0.274575
            7.495000             0.448294
            2.797000             0.284903
            0.521500             0.015195
 s    8 1.00
         6665.000000            -0.000293
         1000.000000            -0.002318
          228.000000            -0.011500
           64.710000            -0.046827
           21.060000            -0.128466
            7.495000            -0.301266
            2.797000            -0.255631
            0.521500             1.093793
 s    1 1.00
            0.159600             1.000000
 p    3 1.00
            9.439000             0.056979
            2.002000             0.313207
            0.545600             0.760377
 p    1 1.00
            0.151700             1.000000
 d    1 1.00
            0.550000             1.000000

    4 0
 s    8 1.00
         6665.000000             0.000692
         1000.000000             0.005326
          228.000000             0.027061
           64.710000             0.101657
           21.060000             0.274575
            7.495000             0.448294
            2.797000             0.284903
            0.521500             0.015195
 s    8 1.00
         6665.000000            -0.000293
         1000.000000            -0.002318
          228.000000            -0.011500
           64.710000            -0.046827
           21.060000            -0.128466
            7.495000            -0.301266
            2.797000            -0.255631
            0.521500             1.093793
 s    1 1.00
            0.159600             1.000000
 p    3 1.00
            9.439000             0.056979
            2.002000             0.313207
            0.545600             0.760377
 p    1 1.00
            0.151700             1.000000
 d    1 1.00
            0.550000             1.000000

    5 0
 s    8 1.00
         6665.000000             0.000692
         1000.000000             0.005326
          228.000000             0.027061
           64.710000             0.101657
           21.060000             0.274575
            7.495000             0.448294
            2.797000             0.284903
            0.521500             0.015195
 s    8 1.00
         6665.000000            -0.000293
         1000.000000            -0.002318
          228.000000            -0.011500
           64.710000            -0.046827
           21.060000            -0.128466
            7.495000            -0.301266
            2.797000            -0.255631
            0.521500             1.093793
 s    1 1.00
            0.159600             1.000000
 p    3 1.00
            9.439000             0.056979
            2.002000             0.313207
            0.545600             0.760377
 p    1 1.00
            0.151700             1.000000
 d    1 1.00
            0.550000             1.000000

    6 0
 s    8 1.00
         6665.000000             0.000692
         1000.000000             0.005326
          228.000000             0.027061
           64.710000             0.101657
           21.060000             0.274575
            7.495000             0.448294
            2.797000             0.284903
            0.521500             0.015195
 s    8 1.00
         6665.000000            -0.000293
         1000.000000            -0.002318
          228.000000            -0.011500
           64.710000            -0.046827
           21.060000            -0.128466
            7.495000            -0.301266
            2.797000            -0.255631
            0.521500             1.093793
 s    1 1.00
            0.159600             1.000000
 p    3 1.00
            9.439000             0.056979
            2.002000             0.313207
            0.545600             0.760377
 p    1 1.00
            0.151700             1.000000
 d    1 1.00
            0.550000             1.000000

    7 0
 s    3 1.00
           13.010000             0.033499
            1.962000             0.234801
            0.444600             0.813683
 s    1 1.00
            0.122000             1.000000
 p    1 1.00
            0.727000             1.000000

    8 0
 s    3 1.00
           13.010000             0.033499
            1.962000             0.234801
            0.444600             0.813683
 s    1 1.00
            0.122000             1.000000
 p    1 1.00
            0.727000             1.000000

    9 0
 s    3 1.00
           13.010000             0.033499
            1.962000             0.234801
            0.444600             0.813683
 s    1 1.00
            0.122000             1.000000
 p    1 1.00
            0.727000             1.000000

   10 0
 s    3 1.00
           13.010000             0.033499
            1.962000             0.234801
            0.444600             0.813683
 s    1 1.00
            0.122000             1.000000
 p    1 1.00
            0.727000             1.000000

   11 0
 s    8 1.00
        11720.000000             0.000710
         1759.000000             0.005467
          400.800000             0.027823
          113.700000             0.104748
           37.030000             0.282921
           13.270000             0.448495
            5.025000             0.270817
            1.013000             0.015450
 s    8 1.00
        11720.000000            -0.000314
         1759.000000            -0.002482
          400.800000            -0.012316
          113.700000            -0.050539
           37.030000            -0.139385
           13.270000            -0.325077
            5.025000            -0.229848
            1.013000             1.095379
 s    1 1.00
            0.302300             1.000000
 p    3 1.00
           17.700000             0.062679
            3.854000             0.333537
            1.046000             0.741240
 p    1 1.00
            0.275300             1.000000
 d    1 1.00
            1.185000             1.000000

   12 0
 s    3 1.00
           13.010000             0.033499
            1.962000             0.234801
            0.444600             0.813683
 s    1 1.00
            0.122000             1.000000
 p    1 1.00
            0.727000             1.000000

   13 0
 s    8 1.00
         9046.000000             0.000700
         1357.000000             0.005386
          309.300000             0.027391
           87.730000             0.103151
           28.560000             0.278571
           10.210000             0.448295
            3.838000             0.278086
            0.746600             0.015432
 s    8 1.00
         9046.000000            -0.000305
         1357.000000            -0.002408
          309.300000            -0.011944
           87.730000            -0.048926
           28.560000            -0.134473
           10.210000            -0.315113
            3.838000            -0.242858
            0.746600             1.094382
 s    1 1.00
            0.224800             1.000000
 p    3 1.00
           13.550000             0.058906
            2.917000             0.320461
            0.797300             0.753042
 p    1 1.00
            0.218500             1.000000
 d    1 1.00
            0.817000             1.000000

   14 0
 s    8 1.00
        11720.000000             0.000710
         1759.000000             0.005467
          400.800000             0.027823
          113.700000             0.104748
           37.030000             0.282921
           13.270000             0.448495
            5.025000             0.270817
            1.013000             0.015450
 s    8 1.00
        11720.000000            -0.000314
         1759.000000            -0.002482
          400.800000            -0.012316
          113.700000            -0.050539
           37.030000            -0.139385
           13.270000            -0.325077
            5.025000            -0.229848
            1.013000             1.095379
 s    1 1.00
            0.302300             1.000000
 p    3 1.00
           17.700000             0.062679
            3.854000             0.333537
            1.046000             0.741240
 p    1 1.00
            0.275300             1.000000
 d    1 1.00
            1.185000             1.000000

   15 0
 s    8 1.00
        11720.000000             0.000710
         1759.000000             0.005467
          400.800000             0.027823
          113.700000             0.104748
           37.030000             0.282921
           13.270000             0.448495
            5.025000             0.270817
            1.013000             0.015450
 s    8 1.00
        11720.000000            -0.000314
         1759.000000            -0.002482
          400.800000            -0.012316
          113.700000            -0.050539
           37.030000            -0.139385
           13.270000            -0.325077
            5.025000            -0.229848
            1.013000             1.095379
 s    1 1.00
            0.302300             1.000000
 p    3 1.00
           17.700000             0.062679
            3.854000             0.333537
            1.046000             0.741240
 p    1 1.00
            0.275300             1.000000
 d    1 1.00
            1.185000             1.000000

[MO]
 Ene= 0.0
 Spin= Alpha
 Occup=     2.0000
    1   -0.00125
    2    0.06344
    3    0.09115
    4    0.19549
    5   -0.03011
    6   -0.00263
    7    0.08721
    8   -0.04985
    9   -0.00129
   10    0.00839
   11    0.00047
   12   -0.00273
   13    0.00765
   14   -0.00016
   15   -0.00009
   16    0.00200
   17   -0.01410
   18   -0.02245
   19   -0.02275
   20    0.15019
   21    0.00019
   22    0.01742
   23    0.00574
   24   -0.00033
   25   -0.01885
   26    0.01724
   27    0.00187
   28   -0.01130
   29    0.00023
   30    0.00016
   31   -0.00447
   32    0.04606
   33    0.08858
   34   -0.00799
   35   -0.17700
   36   -0.00040
   37   -0.05047
   38   -0.07527
   39    0.00030
   40   -0.00410
   41    0.00004
   42    0.00017
   43   -0.00428
   44    0.00003
   45    0.00003
   46    0.00075
   47   -0.02506
   48   -0.06117
   49    0.03883
   50   -0.18349
   51   -0.00088
   52   -0.02056
   53   -0.05887
   54    0.00013
   55    0.00666
   56   -0.00903
   57    0.00166
   58   -0.00377
   59   -0.00008
   60    0.00001
   61   -0.00298
   62    0.01027
   63    0.02402
   64   -0.16103
   65    0.14135
   66    0.00213
   67   -0.04805
   68    0.04731
   69    0.00062
   70   -0.00124
   71   -0.00331
   72    0.00085
   73    0.00739
   74    0.00004
   75   -0.00010
   76   -0.00326
   77    0.01145
   78    0.04029
   79   -0.14715
   80    0.03388
   81    0.00169
   82   -0.05368
   83    0.02500
   84    0.00066
   85   -0.00181
   86   -0.00282
   87    0.00122
   88    0.00869
   89    0.00005
   90   -0.00011
   91    0.14023
   92    0.01711
   93   -0.00653
   94    0.00969
   95    0.00008
   96    0.08688
   97    0.01644
   98    0.00672
   99    0.00521
  100   -0.00007
  101    0.13160
  102    0.03327
  103    0.01111
  104    0.00253
  105   -0.00012
  106    0.08118
  107    0.00380
  108    0.00141
  109   -0.00927
  110   -0.00004
  111   -0.00068
  112   -0.08089
  113   -0.14644
  114    0.12648
  115   -0.21589
  116   -0.00245
  117    0.06716
  118   -0.13299
  119   -0.00137
  120   -0.00266
  121    0.01116
  122   -0.00412
  123   -0.00588
  124   -0.00005
  125    0.00014
  126    0.07079
  127   -0.00440
  128   -0.01028
  129   -0.00965
  130    0.00012
  131    0.00493
  132    0.01174
  133   -0.02961
  134    0.09357
  135   -0.15607
  136   -0.00194
  137    0.04992
  138   -0.03112
  139   -0.00130
  140    0.00311
  141    0.00114
  142    0.00003
  143   -0.01217
  144   -0.00008
  145    0.00017
  146    0.00017
  147    0.01610
  148    0.02733
  149    0.08604
  150    0.03886
  151   -0.00197
  152    0.05011
  153    0.02854
  154   -0.00116
  155   -0.00452
  156    0.00135
  157    0.00181
  158   -0.00724
  159    0.00015
  160    0.00015
  161    0.00143
  162   -0.07975
  163   -0.14791
  164   -0.05173
  165    0.18527
  166   -0.00104
  167   -0.03472
  168    0.10576
  169   -0.00058
  170   -0.00104
  171    0.01248
  172   -0.00357
  173   -0.00756
  174    0.00003
  175   -0.00005
 Ene= 0.0
 Spin= Alpha
 Occup=     2.0000
    1   -0.00089
    2   -0.01736
    3    0.04939
    4    0.11610
    5    0.01578
    6   -0.00059
    7    0.04560
    8    0.00347
    9   -0.00015
   10   -0.00798
   11    0.01180
   12   -0.00243
   13    0.00548
   14    0.00015
   15   -0.00006
   16    0.00108
   17    0.00255
   18   -0.02041
   19   -0.01172
   20    0.04662
   21    0.00167
   22    0.00201
   23   -0.02929
   24    0.00056
   25   -0.00943
   26    0.00858
   27    0.00122
   28    0.01385
   29    0.00035
   30   -0.00013
   31   -0.00378
   32    0.06904
   33    0.02171
   34    0.01345
   35   -0.07130
   36    0.00015
   37    0.01948
   38   -0.01056
   39   -0.00000
   40   -0.00314
   41    0.00146
   42    0.00035
   43   -0.00329
   44    0.00008
   45    0.00012
   46    0.00109
   47   -0.05802
   48   -0.03156
   49    0.05861
   50   -0.02813
   51   -0.00058
   52    0.03360
   53   -0.01979
   54   -0.00041
   55    0.00670
   56   -0.00456
   57   -0.00028
   58   -0.00376
   59   -0.00008
   60    0.00004
   61   -0.00315
   62    0.04076
   63    0.05068
   64   -0.06995
   65    0.09465
   66    0.00112
   67   -0.01837
   68    0.01962
   69    0.00032
   70    0.00092
   71   -0.00410
   72   -0.00021
   73    0.00394
   74    0.00001
   75   -0.00005
   76    0.00054
   77   -0.00716
   78   -0.00872
   79   -0.11607
   80   -0.01574
   81    0.00154
   82   -0.04751
   83   -0.00373
   84    0.00059
   85   -0.00337
   86    0.00188
   87    0.00060
   88    0.00801
   89    0.00010
   90   -0.00010
   91    0.09428
   92    0.03900
   93   -0.00562
   94    0.00862
   95    0.00011
   96   -0.04139
   97   -0.01264
   98   -0.00175
   99   -0.00398
  100    0.00002
  101    0.07900
  102    0.01920
  103    0.00755
  104    0.00149
  105   -0.00008
  106    0.02532
  107    0.00375
  108   -0.00017
  109   -0.00352
  110    0.00001
  111   -0.00043
  112    0.00062
  113    0.00147
  114   -0.03258
  115   -0.05791
  116    0.00111
  117   -0.00598
  118   -0.02216
  119    0.00055
  120   -0.00418
  121    0.00379
  122   -0.00067
  123   -0.00090
  124    0.00006
  125   -0.00002
  126   -0.03793
  127   -0.04244
  128    0.00069
  129   -0.00064
  130    0.00004
  131    0.00012
  132   -0.01106
  133   -0.01839
  134    0.06443
  135    0.33906
  136    0.00460
  137    0.02962
  138    0.14100
  139    0.00305
  140    0.00431
  141   -0.00139
  142   -0.00039
  143    0.00823
  144    0.00014
  145   -0.00011
  146    0.00513
  147   -0.13421
  148   -0.28964
  149   -0.20205
  150   -0.23219
  151    0.00738
  152   -0.10760
  153   -0.12282
  154    0.00414
  155    0.00918
  156    0.01178
  157   -0.00445
  158    0.01865
  159   -0.00047
  160   -0.00059
  161   -0.00406
  162    0.13184
  163    0.27790
  164    0.20913
  165   -0.21696
  166    0.00236
  167    0.11287
  168   -0.11203
  169    0.00135
  170   -0.00659
  171   -0.01397
  172    0.00452
  173    0.01870
  174   -0.00008
  175    0.00019
 Ene= 0.0
 Spin= Alpha
 Occup=     2.0000
    1   -0.00001
    2   -0.00021
    3    0.00039
    4   -0.00011
    5   -0.00074
    6   -0.05011
    7   -0.00030
    8    0.00014
    9   -0.02826
   10   -0.00001
   11   -0.00007
   12    0.00010
   13    0.00001
   14   -0.00405
   15    0.00426
   16    0.00001
   17   -0.00015
   18   -0.00048
   19   -0.00111
   20    0.00145
   21   -0.11506
   22   -0.00039
   23    0.00053
   24   -0.04230
   25   -0.00027
   26   -0.00003
   27    0.00029
   28    0.00005
   29   -0.01478
   30   -0.00015
   31   -0.00001
   32    0.00021
   33   -0.00044
   34   -0.00102
   35   -0.00094
   36   -0.03515
   37    0.00032
   38    0.00013
   39   -0.02013
   40   -0.00003
   41   -0.00000
   42    0.00004
   43   -0.00009
   44   -0.00259
   45   -0.00623
   46   -0.00003
   47   -0.00007
   48    0.00063
   49    0.00057
   50   -0.00066
   51   -0.01191
   52    0.00078
   53   -0.00039
   54   -0.00139
   55    0.00001
   56   -0.00004
   57    0.00001
   58    0.00001
   59   -0.00142
   60   -0.00020
   61    0.00001
   62   -0.00020
   63   -0.00029
   64   -0.00003
   65    0.00096
   66   -0.00735
   67   -0.00016
   68   -0.00006
   69   -0.00487
   70   -0.00004
   71    0.00001
   72    0.00002
   73    0.00005
   74   -0.00098
   75   -0.00019
   76   -0.00002
   77    0.00042
   78    0.00044
   79   -0.00089
   80   -0.00011
   81   -0.01535
   82   -0.00055
   83   -0.00031
   84   -0.00192
   85   -0.00008
   86    0.00004
   87    0.00005
   88    0.00000
   89   -0.00212
   90    0.00039
   91    0.00063
   92    0.00055
   93   -0.00007
   94    0.00006
   95   -0.00185
   96    0.00013
   97    0.00002
   98   -0.00000
   99    0.00001
  100   -0.00045
  101   -0.00016
  102   -0.00006
  103   -0.00001
  104    0.00002
  105   -0.00011
  106    0.00043
  107    0.00013
  108    0.00001
  109   -0.00004
  110   -0.00072
  111   -0.00000
  112    0.00007
  113    0.00002
  114    0.00057
  115    0.00045
  116   -0.04444
  117    0.00031
  118    0.00042
  119   -0.02855
  120    0.00001
  121   -0.00005
  122    0.00001
  123   -0.00002
  124   -0.00003
  125    0.00276
  126    0.00064
  127   -0.00049
  128   -0.00020
  129    0.00007
  130   -0.00333
  131   -0.00001
  132   -0.00008
  133   -0.00003
  134   -0.00475
  135    0.00464
  136   -0.43121
  137   -0.00287
  138    0.00151
  139   -0.25317
  140   -0.00031
  141    0.00003
  142    0.00030
  143    0.00003
  144   -0.01499
  145    0.00113
  146    0.00009
  147   -0.00241
  148   -0.00503
  149   -0.00749
  150   -0.00437
  151   -0.28338
  152   -0.00421
  153   -0.00236
  154   -0.16480
  155    0.00051
  156    0.00029
  157   -0.00050
  158    0.00061
  159    0.01472
  160    0.01969
  161   -0.00008
  162    0.00255
  163    0.00527
  164    0.00029
  165   -0.00506
  166   -0.27668
  167    0.00009
  168   -0.00268
  169   -0.15554
  170    0.00012
  171   -0.00042
  172   -0.00002
  173    0.00010
  174    0.01125
  175   -0.02254
 Ene= 0.0
 Spin= Alpha
 Occup=     2.0000
    1    0.00085
    2    0.00045
    3   -0.01821
    4    0.12296
    5    0.12362
    6   -0.00116
    7    0.06749
    8   -0.01957
    9   -0.00086
   10   -0.00135
   11    0.00565
   12   -0.00463
   13    0.02750
   14    0.00001
   15   -0.00028
   16    0.00429
   17   -0.09393
   18   -0.19382
   19    0.08422
   20    0.04882
   21   -0.00095
   22    0.04993
   23    0.03006
   24   -0.00055
   25    0.00562
   26   -0.00558
   27   -0.00038
   28    0.00315
   29   -0.00008
   30   -0.00005
   31   -0.00155
   32    0.03482
   33    0.07359
   34   -0.18036
   35   -0.05019
   36    0.00195
   37   -0.04769
   38    0.02037
   39    0.00058
   40    0.01009
   41   -0.01100
   42   -0.00113
   43   -0.01645
   44   -0.00018
   45    0.00016
   46    0.00405
   47   -0.01611
   48   -0.04748
   49    0.23693
   50    0.15188
   51   -0.00245
   52    0.08064
   53    0.03775
   54   -0.00086
   55    0.00565
   56    0.00078
   57   -0.00054
   58   -0.00424
   59   -0.00009
   60    0.00005
   61    0.00003
   62    0.03639
   63    0.06040
   64    0.21026
   65    0.12557
   66   -0.00217
   67    0.08979
   68    0.05341
   69   -0.00094
   70    0.00781
   71   -0.00484
   72   -0.00098
   73    0.00200
   74   -0.00011
   75   -0.00003
   76    0.00230
   77   -0.00889
   78   -0.01224
   79   -0.08595
   80   -0.20547
   81    0.00058
   82    0.00162
   83   -0.04065
   84   -0.00009
   85   -0.00919
   86    0.01102
   87   -0.00052
   88    0.01633
   89    0.00015
   90   -0.00016
   91   -0.00784
   92    0.00676
   93   -0.00414
   94   -0.00391
   95    0.00004
   96   -0.21168
   97   -0.06126
   98   -0.00744
   99   -0.01534
  100    0.00006
  101   -0.13832
  102   -0.03049
  103   -0.01164
  104    0.00213
  105    0.00014
  106   -0.11898
  107   -0.04057
  108   -0.00941
  109    0.00485
  110    0.00012
  111   -0.00159
  112   -0.03561
  113   -0.04484
  114   -0.05064
  115   -0.21650
  116    0.00027
  117   -0.02769
  118   -0.13710
  119    0.00010
  120   -0.00614
  121    0.01132
  122   -0.00327
  123    0.00122
  124    0.00005
  125    0.00003
  126   -0.03815
  127   -0.01368
  128    0.00542
  129   -0.01038
  130   -0.00010
  131   -0.00030
  132    0.02059
  133    0.03874
  134   -0.06986
  135   -0.04412
  136    0.00052
  137   -0.04313
  138   -0.01448
  139    0.00025
  140   -0.00859
  141    0.00745
  142    0.00002
  143   -0.00413
  144    0.00010
  145    0.00002
  146   -0.00173
  147    0.01210
  148    0.03995
  149   -0.03616
  150    0.08630
  151   -0.00021
  152   -0.02576
  153    0.05331
  154   -0.00007
  155    0.00228
  156   -0.00594
  157    0.00018
  158   -0.00216
  159   -0.00001
  160    0.00007
  161   -0.00013
  162   -0.00766
  163   -0.01474
  164   -0.07187
  165    0.00561
  166    0.00050
  167   -0.04271
  168    0.00332
  169    0.00030
  170    0.00227
  171   -0.00077
  172   -0.00067
  173   -0.00418
  174   -0.00001
  175    0.00002
 Ene= 0.0
 Spin= Alpha
 Occup=     2.0000
    1   -0.00162
    2    0.00648
    3    0.03699
    4   -0.14381
    5    0.13515
    6    0.00228
    7   -0.04218
    8   -0.00170
    9    0.00065
   10    0.00553
   11   -0.00380
   12   -0.00294
   13    0.03061
   14   -0.00006
   15   -0.00036
   16    0.00115
   17   -0.01601
   18   -0.07704
   19   -0.04138
   20   -0.22373
   21    0.00026
   22   -0.00325
   23   -0.10228
   24   -0.00005
   25    0.01021
   26   -0.01361
   27    0.00030
   28    0.01208
   29   -0.00014
   30   -0.00017
   31    0.00332
   32    0.01002
   33    0.00064
   34   -0.06059
   35    0.22347
   36    0.00136
   37   -0.03857
   38    0.10435
   39    0.00081
   40    0.00640
   41   -0.00152
   42   -0.00084
   43    0.02983
   44   -0.00004
   45   -0.00033
   46   -0.00112
   47   -0.01550
   48   -0.02187
   49    0.07045
   50   -0.25192
   51   -0.00113
   52    0.01529
   53   -0.10453
   54   -0.00029
   55    0.00635
   56   -0.00792
   57    0.00029
   58    0.02599
   59   -0.00002
   60   -0.00031
   61   -0.00069
   62   -0.02046
   63   -0.02201
   64   -0.14253
   65    0.21355
   66    0.00232
   67   -0.06166
   68    0.07500
   69    0.00100
   70    0.01295
   71   -0.01404
   72    0.00043
   73    0.01969
   74   -0.00011
   75   -0.00026
   76    0.00197
   77    0.01367
   78    0.01735
   79    0.11059
   80   -0.17454
   81   -0.00141
   82    0.03762
   83   -0.06747
   84   -0.00043
   85    0.01831
   86   -0.01666
   87   -0.00045
   88    0.02166
   89   -0.00019
   90   -0.00031
   91   -0.20593
   92   -0.07532
   93    0.00880
   94   -0.00927
   95   -0.00011
   96    0.16122
   97    0.06787
   98    0.01047
   99    0.00456
  100   -0.00011
  101    0.12564
  102    0.05483
  103    0.00717
  104    0.00707
  105   -0.00006
  106   -0.19311
  107   -0.09693
  108   -0.00440
  109    0.00922
  110    0.00008
  111   -0.00109
  112   -0.02734
  113   -0.04909
  114    0.05157
  115   -0.14897
  116   -0.00077
  117    0.03153
  118   -0.10878
  119   -0.00047
  120    0.00247
  121    0.00223
  122   -0.00270
  123    0.00016
  124   -0.00008
  125    0.00001
  126    0.05213
  127    0.00779
  128   -0.00409
  129   -0.00564
  130    0.00006
  131    0.00042
  132    0.01276
  133    0.01866
  134   -0.00731
  135    0.02262
  136   -0.00008
  137   -0.01191
  138    0.00278
  139    0.00010
  140   -0.00920
  141    0.00884
  142   -0.00030
  143    0.00609
  144    0.00013
  145   -0.00012
  146   -0.00143
  147   -0.01097
  148   -0.00471
  149   -0.12159
  150    0.03153
  151    0.00133
  152   -0.09337
  153    0.02779
  154    0.00103
  155    0.00391
  156   -0.00301
  157   -0.00177
  158    0.00246
  159   -0.00009
  160   -0.00002
  161    0.00059
  162    0.01197
  163    0.01473
  164   -0.00952
  165   -0.01911
  166    0.00037
  167   -0.00386
  168   -0.01334
  169    0.00025
  170   -0.00016
  171   -0.00046
  172    0.00087
  173   -0.00022
  174    0.00001
  175    0.00001
 Ene= 0.0
 Spin= Alpha
 Occup=     2.0000
    1   -0.00335
    2    0.08449
    3    0.18649
    4   -0.18267
    5   -0.03482
    6    0.00168
    7   -0.00439
    8   -0.08907
    9   -0.00034
   10    0.01248
   11   -0.01834
   12    0.00023
   13    0.01133
   14   -0.00017
   15   -0.00023
   16    0.00248
   17   -0.09412
   18   -0.17221
   19    0.03808
   20    0.02519
   21   -0.00044
   22    0.02920
   23   -0.10712
   24   -0.00054
   25   -0.00490
   26    0.00759
   27   -0.00020
   28   -0.01361
   29    0.00006
   30    0.00015
   31   -0.00368
   32    0.02171
   33    0.00811
   34    0.18064
   35   -0.25073
   36   -0.00260
   37    0.02947
   38   -0.10835
   39   -0.00058
   40   -0.01118
   41    0.00278
   42    0.00111
   43   -0.01580
   44    0.00013
   45    0.00018
   46    0.00324
   47   -0.05870
   48   -0.09930
   49   -0.12276
   50    0.01088
   51    0.00142
   52   -0.04617
   53   -0.01280
   54    0.00050
   55   -0.00531
   56    0.00861
   57    0.00039
   58   -0.01841
   59    0.00004
   60    0.00023
   61   -0.00321
   62    0.05341
   63    0.09695
   64    0.02263
   65   -0.03479
   66   -0.00040
   67    0.02660
   68   -0.01900
   69   -0.00038
   70    0.00890
   71   -0.01299
   72   -0.00021
   73    0.00994
   74   -0.00011
   75   -0.00015
   76    0.00388
   77   -0.01850
   78   -0.03114
   79    0.24254
   80   -0.19801
   81   -0.00338
   82    0.09862
   83   -0.04526
   84   -0.00131
   85    0.01889
   86   -0.00945
   87   -0.00072
   88    0.00860
   89   -0.00027
   90   -0.00011
   91    0.26995
   92    0.07671
   93   -0.00969
   94    0.01788
   95    0.00014
   96    0.00072
   97   -0.00680
   98   -0.00351
   99    0.00212
  100    0.00004
  101    0.02014
  102    0.01370
  103    0.00156
  104    0.00122
  105   -0.00002
  106   -0.25547
  107   -0.08357
  108   -0.00653
  109    0.01800
  110    0.00010
  111   -0.00051
  112   -0.01533
  113   -0.02503
  114    0.08597
  115    0.02269
  116   -0.00190
  117    0.03862
  118    0.01504
  119   -0.00103
  120    0.00478
  121   -0.00468
  122   -0.00039
  123   -0.00039
  124   -0.00009
  125    0.00003
  126    0.06476
  127    0.01416
  128   -0.00717
  129    0.00278
  130    0.00009
  131    0.00238
  132    0.02183
  133    0.00420
  134    0.01503
  135    0.01901
  136    0.00013
  137   -0.00612
  138    0.03640
  139    0.00028
  140   -0.00745
  141    0.00733
  142   -0.00018
  143    0.00420
  144    0.00010
  145   -0.00005
  146    0.00039
  147   -0.01614
  148   -0.03944
  149   -0.05111
  150   -0.02594
  151    0.00114
  152   -0.03243
  153   -0.01410
  154    0.00071
  155    0.00105
  156    0.00207
  157   -0.00097
  158    0.00252
  159   -0.00006
  160   -0.00006