[Molden Format]
[Title]
Written by TeraChem
[Atoms] Angs
N   1   7     -0.99491   -0.03367   -0.05979
N   2   7      0.94077    1.21775   -0.00747
C   3   6     -0.47776    1.24445    0.02454
C   4   6      1.74943    0.00581   -0.00390
C   5   6      1.16864   -1.22791   -0.01366
C   6   6     -0.37668   -1.31792    0.02800
O   7   8     -0.89295   -2.32325   -0.05723
O   8   8     -1.03734    2.26929    0.07007
H   9   1     -2.05045    0.05257    0.22691
H   10   1      1.52036    2.14819   -0.03667
H   11   1      2.74711    0.26380   -0.10007
H   12   1      1.65944   -2.11213    0.03836
[GTO]
    1 0
 s    8 1.00
         9046.000000             0.000700
         1357.000000             0.005386
          309.300000             0.027391
           87.730000             0.103151
           28.560000             0.278571
           10.210000             0.448295
            3.838000             0.278086
            0.746600             0.015432
 s    8 1.00
         9046.000000            -0.000305
         1357.000000            -0.002408
          309.300000            -0.011944
           87.730000            -0.048926
           28.560000            -0.134473
           10.210000            -0.315113
            3.838000            -0.242858
            0.746600             1.094382
 s    1 1.00
            0.224800             1.000000
 p    3 1.00
           13.550000             0.058906
            2.917000             0.320461
            0.797300             0.753042
 p    1 1.00
            0.218500             1.000000
 d    1 1.00
            0.817000             1.000000

    2 0
 s    8 1.00
         9046.000000             0.000700
         1357.000000             0.005386
          309.300000             0.027391
           87.730000             0.103151
           28.560000             0.278571
           10.210000             0.448295
            3.838000             0.278086
            0.746600             0.015432
 s    8 1.00
         9046.000000            -0.000305
         1357.000000            -0.002408
          309.300000            -0.011944
           87.730000            -0.048926
           28.560000            -0.134473
           10.210000            -0.315113
            3.838000            -0.242858
            0.746600             1.094382
 s    1 1.00
            0.224800             1.000000
 p    3 1.00
           13.550000             0.058906
            2.917000             0.320461
            0.797300             0.753042
 p    1 1.00
            0.218500             1.000000
 d    1 1.00
            0.817000             1.000000

    3 0
 s    8 1.00
         6665.000000             0.000692
         1000.000000             0.005326
          228.000000             0.027061
           64.710000             0.101657
           21.060000             0.274575
            7.495000             0.448294
            2.797000             0.284903
            0.521500             0.015195
 s    8 1.00
         6665.000000            -0.000293
         1000.000000            -0.002318
          228.000000            -0.011500
           64.710000            -0.046827
           21.060000            -0.128466
            7.495000            -0.301266
            2.797000            -0.255631
            0.521500             1.093793
 s    1 1.00
            0.159600             1.000000
 p    3 1.00
            9.439000             0.056979
            2.002000             0.313207
            0.545600             0.760377
 p    1 1.00
            0.151700             1.000000
 d    1 1.00
            0.550000             1.000000

    4 0
 s    8 1.00
         6665.000000             0.000692
         1000.000000             0.005326
          228.000000             0.027061
           64.710000             0.101657
           21.060000             0.274575
            7.495000             0.448294
            2.797000             0.284903
            0.521500             0.015195
 s    8 1.00
         6665.000000            -0.000293
         1000.000000            -0.002318
          228.000000            -0.011500
           64.710000            -0.046827
           21.060000            -0.128466
            7.495000            -0.301266
            2.797000            -0.255631
            0.521500             1.093793
 s    1 1.00
            0.159600             1.000000
 p    3 1.00
            9.439000             0.056979
            2.002000             0.313207
            0.545600             0.760377
 p    1 1.00
            0.151700             1.000000
 d    1 1.00
            0.550000             1.000000

    5 0
 s    8 1.00
         6665.000000             0.000692
         1000.000000             0.005326
          228.000000             0.027061
           64.710000             0.101657
           21.060000             0.274575
            7.495000             0.448294
            2.797000             0.284903
            0.521500             0.015195
 s    8 1.00
         6665.000000            -0.000293
         1000.000000            -0.002318
          228.000000            -0.011500
           64.710000            -0.046827
           21.060000            -0.128466
            7.495000            -0.301266
            2.797000            -0.255631
            0.521500             1.093793
 s    1 1.00
            0.159600             1.000000
 p    3 1.00
            9.439000             0.056979
            2.002000             0.313207
            0.545600             0.760377
 p    1 1.00
            0.151700             1.000000
 d    1 1.00
            0.550000             1.000000

    6 0
 s    8 1.00
         6665.000000             0.000692
         1000.000000             0.005326
          228.000000             0.027061
           64.710000             0.101657
           21.060000             0.274575
            7.495000             0.448294
            2.797000             0.284903
            0.521500             0.015195
 s    8 1.00
         6665.000000            -0.000293
         1000.000000            -0.002318
          228.000000            -0.011500
           64.710000            -0.046827
           21.060000            -0.128466
            7.495000            -0.301266
            2.797000            -0.255631
            0.521500             1.093793
 s    1 1.00
            0.159600             1.000000
 p    3 1.00
            9.439000             0.056979
            2.002000             0.313207
            0.545600             0.760377
 p    1 1.00
            0.151700             1.000000
 d    1 1.00
            0.550000             1.000000

    7 0
 s    8 1.00
        11720.000000             0.000710
         1759.000000             0.005467
          400.800000             0.027823
          113.700000             0.104748
           37.030000             0.282921
           13.270000             0.448495
            5.025000             0.270817
            1.013000             0.015450
 s    8 1.00
        11720.000000            -0.000314
         1759.000000            -0.002482
          400.800000            -0.012316
          113.700000            -0.050539
           37.030000            -0.139385
           13.270000            -0.325077
            5.025000            -0.229848
            1.013000             1.095379
 s    1 1.00
            0.302300             1.000000
 p    3 1.00
           17.700000             0.062679
            3.854000             0.333537
            1.046000             0.741240
 p    1 1.00
            0.275300             1.000000
 d    1 1.00
            1.185000             1.000000

    8 0
 s    8 1.00
        11720.000000             0.000710
         1759.000000             0.005467
          400.800000             0.027823
          113.700000             0.104748
           37.030000             0.282921
           13.270000             0.448495
            5.025000             0.270817
            1.013000             0.015450
 s    8 1.00
        11720.000000            -0.000314
         1759.000000            -0.002482
          400.800000            -0.012316
          113.700000            -0.050539
           37.030000            -0.139385
           13.270000            -0.325077
            5.025000            -0.229848
            1.013000             1.095379
 s    1 1.00
            0.302300             1.000000
 p    3 1.00
           17.700000             0.062679
            3.854000             0.333537
            1.046000             0.741240
 p    1 1.00
            0.275300             1.000000
 d    1 1.00
            1.185000             1.000000

    9 0
 s    3 1.00
           13.010000             0.033499
            1.962000             0.234801
            0.444600             0.813683
 s    1 1.00
            0.122000             1.000000
 p    1 1.00
            0.727000             1.000000

   10 0
 s    3 1.00
           13.010000             0.033499
            1.962000             0.234801
            0.444600             0.813683
 s    1 1.00
            0.122000             1.000000
 p    1 1.00
            0.727000             1.000000

   11 0
 s    3 1.00
           13.010000             0.033499
            1.962000             0.234801
            0.444600             0.813683
 s    1 1.00
            0.122000             1.000000
 p    1 1.00
            0.727000             1.000000

   12 0
 s    3 1.00
           13.010000             0.033499
            1.962000             0.234801
            0.444600             0.813683
 s    1 1.00
            0.122000             1.000000
 p    1 1.00
            0.727000             1.000000

[MO]
 Ene= 0.0
 Spin= Alpha
 Occup=     2.0000
    1   -0.00043
    2    0.02283
    3    0.04946
    4    0.01837
    5    0.06034
    6   -0.06354
    7    0.02136
    8    0.00804
    9   -0.04558
   10    0.00037
   11   -0.00039
   12   -0.00121
   13    0.00737
   14   -0.00185
   15   -0.00091
   16   -0.00079
   17    0.00904
   18    0.02894
   19   -0.12545
   20   -0.01550
   21   -0.03960
   22   -0.06475
   23   -0.02834
   24   -0.02763
   25    0.00462
   26   -0.00541
   27   -0.00045
   28    0.00483
   29    0.00197
   30    0.00102
   31   -0.00353
   32   -0.07930
   33    0.01387
   34    0.18488
   35   -0.22795
   36   -0.07559
   37   -0.00116
   38    0.03524
   39   -0.02554
   40    0.01387
   41    0.00328
   42    0.00500
   43    0.01308
   44    0.00204
   45   -0.00051
   46   -0.00338
   47   -0.00772
   48    0.01198
   49    0.09147
   50   -0.01722
   51   -0.02056
   52    0.01897
   53   -0.02212
   54   -0.00771
   55   -0.00053
   56   -0.00540
   57   -0.00013
   58   -0.00239
   59    0.00133
   60   -0.00073
   61   -0.00184
   62    0.00104
   63   -0.03595
   64    0.13231
   65   -0.10493
   66   -0.01373
   67    0.06498
   68   -0.05114
   69   -0.01001
   70   -0.00613
   71   -0.00009
   72    0.00069
   73    0.00420
   74    0.00226
   75   -0.00191
   76   -0.00295
   77   -0.01194
   78   -0.04749
   79   -0.13506
   80   -0.13484
   81   -0.04571
   82    0.00281
   83    0.00473
   84   -0.01285
   85   -0.01027
   86   -0.00603
   87   -0.00480
   88    0.00521
   89    0.00302
   90    0.00128
   91   -0.00178
   92   -0.06420
   93   -0.10119
   94    0.05706
   95    0.20614
   96   -0.01908
   97    0.03151
   98    0.12361
   99   -0.01229
  100   -0.00331
  101    0.01305
  102   -0.00523
  103    0.00716
  104   -0.00059
  105   -0.00059
  106    0.00323
  107    0.15012
  108    0.23374
  109   -0.15694
  110    0.36855
  111   -0.03639
  112   -0.09482
  113    0.22170
  114   -0.02260
  115    0.00303
  116   -0.02102
  117    0.00879
  118    0.01610
  119   -0.00135
  120    0.00232
  121   -0.01132
  122    0.00512
  123   -0.00083
  124    0.00097
  125   -0.00173
  126   -0.04922
  127   -0.00132
  128   -0.00004
  129    0.00567
  130   -0.00118
  131    0.06652
  132    0.01953
  133   -0.00533
  134   -0.00070
  135    0.00004
  136    0.13038
  137    0.01914
  138   -0.00388
  139    0.01100
  140   -0.00129
 Ene= 0.0
 Spin= Alpha
 Occup=     2.0000
    1    0.00114
    2   -0.02707
    3   -0.07271
    4   -0.23625
    5    0.01969
    6    0.13616
    7   -0.13297
    8    0.00649
    9    0.08542
   10    0.00267
   11   -0.00593
   12    0.00396
   13    0.00115
   14   -0.00062
   15    0.00174
   16   -0.00162
   17    0.03696
   18    0.07436
   19   -0.04818
   20   -0.14271
   21    0.07379
   22   -0.04224
   23   -0.08051
   24    0.04957
   25   -0.00662
   26    0.00609
   27   -0.00058
   28   -0.00090
   29   -0.00316
   30   -0.00192
   31   -0.00111
   32   -0.03762
   33   -0.03428
   34    0.03687
   35    0.02491
   36    0.11112
   37   -0.01655
   38    0.01043
   39    0.04395
   40    0.01854
   41   -0.01892
   42    0.00123
   43   -0.00183
   44   -0.00364
   45   -0.00156
   46    0.00357
   47    0.01031
   48    0.02020
   49   -0.25552
   50   -0.06739
   51    0.04416
   52   -0.08638
   53   -0.02679
   54    0.01659
   55   -0.00090
   56    0.01009
   57   -0.00140
   58   -0.00883
   59   -0.00164
   60    0.00157
   61    0.00142
   62    0.02241
   63   -0.00031
   64    0.01863
   65    0.13866
   66    0.02955
   67    0.00154
   68    0.01055
   69    0.01651
   70   -0.01146
   71    0.01040
   72    0.00073
   73    0.00492
   74   -0.00228
   75    0.00299
   76    0.00038
   77    0.01032
   78   -0.02844
   79   -0.06785
   80   -0.17038
   81    0.08947
   82   -0.00942
   83    0.02250
   84    0.03920
   85    0.00723
   86   -0.01506
   87   -0.00547
   88    0.01408
   89   -0.00578
   90    0.00010
   91   -0.00147
   92   -0.07188
   93   -0.11479
   94    0.07352
   95    0.19411
   96    0.10533
   97    0.04495
   98    0.10864
   99    0.06452
  100   -0.00082
  101    0.00920
  102   -0.00344
  103    0.00893
  104    0.00412
  105    0.00796
  106    0.00110
  107    0.01351
  108    0.01657
  109   -0.02510
  110    0.01886
  111    0.08784
  112   -0.01215
  113    0.01255
  114    0.05465
  115    0.00207
  116   -0.00177
  117    0.00045
  118    0.00008
  119    0.00339
  120   -0.00647
  121    0.19202
  122    0.04584
  123    0.02139
  124   -0.00141
  125   -0.00274
  126   -0.09209
  127   -0.02041
  128    0.00540
  129    0.00913
  130    0.00163
  131   -0.21082
  132   -0.05740
  133    0.01589
  134    0.00408
  135   -0.00079
  136   -0.07379
  137   -0.03222
  138    0.00587
  139   -0.00209
  140    0.00154
 Ene= 0.0
 Spin= Alpha
 Occup=     2.0000
    1    0.00340
    2   -0.03311
    3   -0.08799
    4    0.01159
    5    0.01393
    6   -0.01137
    7   -0.03021
    8   -0.00272
    9   -0.00502
   10   -0.00318
   11    0.00947
   12    0.00097
   13    0.00067
   14   -0.00058
   15   -0.00003
   16    0.00160
   17   -0.05062
   18   -0.08062
   19   -0.06086
   20    0.02580
   21   -0.00336
   22   -0.01965
   23    0.03217
   24   -0.00239
   25    0.00973
   26   -0.00515
   27    0.00020
   28   -0.00468
   29   -0.00030
   30    0.00039
   31    0.01067
   32    0.15210
   33    0.08159
   34   -0.02708
   35    0.10403
   36   -0.00235
   37    0.01822
   38   -0.03708
   39   -0.00552
   40   -0.00226
   41    0.00559
   42   -0.00212
   43   -0.00506
   44   -0.00024
   45    0.00097
   46   -0.00094
   47    0.07024
   48    0.07065
   49    0.18528
   50    0.02027
   51   -0.01321
   52    0.05882
   53    0.00959
   54   -0.00462
   55    0.00686
   56   -0.01372
   57    0.00373
   58    0.00693
   59   -0.00102
   60   -0.00035
   61    0.00482
   62   -0.05322
   63   -0.08343
   64    0.01139
   65   -0.01879
   66   -0.00499
   67    0.04488
   68   -0.03355
   69   -0.00264
   70    0.00799
   71   -0.00445
   72    0.00247
   73    0.01130
   74    0.00011
   75   -0.00100
   76    0.00563
   77    0.14256
   78    0.07707
   79   -0.10396
   80   -0.17010
   81   -0.01223
   82    0.03439
   83    0.03574
   84   -0.00003
   85   -0.00975
   86    0.00073
   87   -0.00599
   88    0.01183
   89    0.00062
   90    0.00077
   91   -0.00175
   92   -0.15646
   93   -0.25935
   94    0.16384
   95    0.33542
   96    0.02665
   97    0.08918
   98    0.18856
   99    0.01603
  100   -0.00207
  101    0.01847
  102   -0.00710
  103    0.01484
  104    0.00123
  105    0.00265
  106   -0.00057
  107   -0.12236
  108   -0.19827
  109    0.14106
  110   -0.20682
  111   -0.01425
  112    0.08188
  113   -0.11614
  114   -0.00781
  115    0.00053
  116    0.01032
  117   -0.00419
  118   -0.01113
  119   -0.00068
  120    0.00115
  121   -0.03762
  122   -0.02739
  123   -0.00558
  124    0.00122
  125    0.00193
  126   -0.04064
  127   -0.01996
  128    0.00225
  129    0.00531
  130   -0.00032
  131    0.18995
  132    0.04414
  133   -0.01511
  134   -0.00410
  135    0.00174
  136   -0.02638
  137   -0.03516
  138    0.00028
  139   -0.00282
  140   -0.00006
 Ene= 0.0
 Spin= Alpha
 Occup=     2.0000
    1   -0.00048
    2    0.01001
    3    0.01177
    4   -0.16843
    5   -0.11009
    6   -0.02817
    7   -0.10409
    8   -0.06329
    9   -0.02281
   10    0.00622
   11   -0.00969
   12    0.00083
   13   -0.00540
   14   -0.00580
   15    0.00057
   16    0.00017
   17    0.00992
   18    0.02870
   19   -0.09964
   20   -0.30052
   21   -0.00618
   22   -0.03790
   23   -0.16893
   24   -0.00609
   25    0.00834
   26   -0.00370
   27   -0.00138
   28   -0.01391
   29    0.00009
   30    0.00087
   31   -0.00008
   32   -0.00088
   33    0.00807
   34    0.10802
   35    0.13320
   36   -0.01020
   37    0.04417
   38    0.00803
   39   -0.00656
   40    0.00735
   41   -0.00793
   42   -0.00106
   43   -0.01635
   44   -0.00011
   45    0.00005
   46   -0.00005
   47   -0.00133
   48   -0.00104
   49    0.03475
   50    0.25836
   51   -0.01600
   52    0.01273
   53    0.05897
   54   -0.00661
   55    0.01257
   56   -0.00747
   57   -0.00235
   58   -0.02585
   59    0.00032
   60    0.00030
   61    0.00012
   62   -0.02236
   63   -0.02547
   64   -0.06299
   65   -0.23693
   66   -0.01640
   67   -0.03798
   68   -0.07801
   69   -0.01068
   70    0.00228
   71   -0.00552
   72   -0.00004
   73   -0.01541
   74    0.00219
   75   -0.00183
   76    0.00006
   77   -0.02134
   78   -0.00780
   79    0.08283
   80    0.03232
   81   -0.07358
   82    0.01574
   83   -0.01761
   84   -0.03605
   85    0.00478
   86   -0.00226
   87    0.00456
   88   -0.02769
   89    0.00377
   90    0.00704
   91    0.00277
   92    0.01676
   93    0.02576
   94    0.04481
   95   -0.12877
   96   -0.10308
   97    0.03051
   98   -0.07758
   99   -0.06545
  100    0.00524
  101   -0.00708
  102    0.00178
  103   -0.00103
  104   -0.00281
  105   -0.00659
  106   -0.00120
  107   -0.01425
  108   -0.02219
  109    0.12344
  110   -0.01327
  111   -0.01291
  112    0.07941
  113   -0.00407
  114   -0.00840
  115    0.00562
  116   -0.00350
  117   -0.00162
  118   -0.00782
  119   -0.00083
  120    0.00086
  121    0.13420
  122    0.04102
  123    0.01149
  124   -0.00535
  125   -0.00489
  126   -0.25752
  127   -0.08666
  128    0.01387
  129    0.02256
  130   -0.00105
  131    0.07426
  132    0.02450
  133   -0.00637
  134    0.00699
  135    0.00009
  136    0.13665
  137    0.05376
  138   -0.00858
  139    0.00476
  140   -0.00141
 Ene= 0.0
 Spin= Alpha
 Occup=     2.0000
    1   -0.00026
    2    0.03502
    3    0.06418
    4    0.00799
    5    0.01396
    6   -0.14178
    7   -0.01088
    8    0.01736
    9   -0.10770
   10   -0.00027
   11    0.00085
   12   -0.00163
   13    0.00031
   14   -0.00148
   15   -0.00328
   16    0.00134
   17   -0.01163
   18   -0.03901
   19    0.04533
   20   -0.00217
   21    0.37561
   22    0.03467
   23   -0.00157
   24    0.30272
   25    0.00007
   26    0.00149
   27    0.00041
   28   -0.00083
   29    0.00601
   30   -0.01197
   31   -0.00022
   32   -0.00669
   33   -0.00329
   34   -0.00733
   35    0.01170
   36   -0.08775
   37    0.01775
   38    0.00945
   39   -0.05411
   40   -0.01357
   41    0.01495
   42   -0.00193
   43    0.00626
   44    0.03819
   45   -0.01422
   46    0.00027
   47    0.01761
   48    0.03844
   49   -0.01298
   50    0.00482
   51    0.27330
   52   -0.00832
   53   -0.00713
   54    0.18222
   55   -0.00208
   56    0.00504
   57   -0.00091
   58   -0.00080
   59   -0.01917
   60    0.00715
   61    0.00018
   62   -0.01163
   63   -0.03557
   64    0.02345
   65    0.00555
   66    0.16598
   67    0.00935
   68   -0.01280
   69    0.10258
   70   -0.00249
   71   -0.00005
   72    0.00082
   73    0.00038
   74    0.00618
   75    0.01812
   76   -0.00084
   77   -0.01272
   78   -0.00329
   79   -0.00653
   80   -0.01796
   81   -0.01156
   82    0.00042
   83    0.00918
   84   -0.00181
   85   -0.00691
   86    0.00602
   87   -0.00036
   88   -0.00265
   89    0.01318
   90   -0.00281
   91   -0.00051
   92    0.00059
   93    0.00531
   94    0.05063
   95   -0.01018
   96   -0.01812
   97    0.03684
   98   -0.00945
   99   -0.01551
  100    0.00093
  101   -0.00084
  102   -0.00063
  103    0.00162
  104   -0.00019
  105   -0.00094
  106   -0.00006
  107    0.00086
  108    0.00153
  109    0.09285
  110    0.05238
  111   -0.22127
  112    0.06518
  113    0.03830
  114   -0.16067
  115    0.00227
  116   -0.00291
  117    0.00057
  118   -0.00177
  119   -0.00514
  120    0.01009
  121   -0.02717
  122   -0.02366
  123   -0.00436
  124   -0.00054
  125   -0.00494
  126    0.00434
  127    0.00753
  128    0.00000
  129   -0.00022
  130    0.01246
  131   -0.02130
  132   -0.00747
  133    0.00249
  134    0.00086
  135    0.00982
  136    0.00447
  137   -0.00031
  138   -0.00008
  139    0.00135
  140    0.00658
 Ene= 0.0
 Spin= Alpha
 Occup=     2.0000
    1    0.00357
    2   -0.02484
    3   -0.04991
    4    0.16047
    5   -0.03044
    6   -0.00629
    7    0.08673
    8   -0.01899
    9    0.00058
   10   -0.00695
   11    0.01433
   12   -0.00038
   13    0.00005
   14    0.00455
   15    0.00035
   16   -0.00069
   17    0.03497
   18    0.05768
   19    0.12083
   20   -0.13782
   21    0.03032
   22    0.06570
   23   -0.07273
   24    0.02188
   25   -0.00630
   26    0.00446
   27    0.00044
   28   -0.00283
   29   -0.00054
   30   -0.00096
   31    0.00181
   32    0.03442
   33    0.01411
   34   -0.14613
   35   -0.00973
   36    0.03238
   37   -0.03380
   38   -0.03572
   39    0.01282
   40   -0.00248
   41   -0.00156
   42   -0.00127
   43   -0.02739
   44   -0.00010
   45    0.00325
   46    0.00329
   47   -0.04780
   48   -0.07561
   49   -0.12355
   50    0.11069
   51    0.02587
   52   -0.04383
   53    0.05024
   54    0.01198
   55   -0.00927
   56    0.02048
   57   -0.00195
   58   -0.02488
   59   -0.00051
   60    0.00036
   61   -0.00652
   62    0.03202
   63    0.05522
   64    0.15934
   65   -0.19364
   66    0.01701
   67    0.08466
   68   -0.04999
   69    0.00860
   70   -0.02242
   71    0.00834
   72    0.00098
   73   -0.01508
   74    0.00172
   75    0.00047
   76    0.00051
   77   -0.01664
   78   -0.02321
   79   -0.21359
   80    0.05343
   81    0.00463
   82   -0.06022
   83    0.00472
   84    0.00176
   85    0.01227
   86   -0.01028
   87   -0.00266
   88    0.00827
   89    0.00293
   90   -0.00194
   91    0.00028
   92   -0.00910
   93   -0.02858
   94   -0.22418
   95    0.16162
   96    0.00948
   97   -0.14785
   98    0.10456
   99    0.00596
  100   -0.01096
  101    0.01394
  102   -0.00073
  103   -0.00771
  104   -0.00077
  105    0.00153
  106   -0.00249
  107   -0.02654
  108   -0.04102
  109   -0.09823
  110   -0.18236
  111    0.02410
  112   -0.06508
  113   -0.11519
  114    0.01598
  115   -0.00766
  116    0.01136
  117   -0.00293
  118    0.00002
  119    0.00112
  120   -0.00138
  121   -0.15299
  122   -0.04304
  123   -0.01479
  124    0.00047
  125    0.00465
  126   -0.02830
  127   -0.01829
  128    0.00625
  129   -0.00048
  130    0.00076
  131   -0.12975
  132   -0.04426
  133    0.00861
  134    0.00604
  135   -0.00020
  136    0.24840
  137    0.06984
  138   -0.00559
  139    0.01833
  140   -0.00082
 Ene= 0.0
 Spin= Alpha
 Occup=     2.0000
    1   -0.00218
    2   -0.01210
    3   -0.00420
    4    0.10689
    5   -0.00812
    6    0.22661
    7    0.06540
    8   -0.01187
    9    0.15674
   10   -0.00291
   11   -0.00472
   12    0.00353
   13    0.00104
   14    0.01096
   15    0.00271
   16    0.00107
   17   -0.02284
   18   -0.04215
   19   -0.04178
   20    0.01132
   21    0.14830
   22   -0.00573
   23    0.00559
   24    0.10025
   25    0.00710
   26   -0.00591
   27    0.00046
   28   -0.00057
   29   -0.00727
   30   -0.00324
   31   -0.00085
   32    0.00896
   33    0.04579
   34    0.06697
   35   -0.07247
   36    0.22346
   37    0.01905
   38   -0.00829
   39    0.09498
   40   -0.00356
   41    0.01099
   42   -0.00081
   43    0.00309
   44   -0.00543
   45    0.00423
   46   -0.00287
   47    0.00222
   48    0.01028
   49    0.17754
   50    0.07659
   51    0.05715
   52    0.05482
   53    0.01375
   54    0.02853
   55    0.00599
   56   -0.01096
   57    0.00017
   58    0.00144
   59   -0.00777
   60    0.00169
   61    0.00058
   62   -0.02916
   63   -0.04313
   64   -0.01347
   65   -0.11774
   66    0.06309
   67    0.00306
   68   -0.03299
   69    0.03289
   70    0.00717
   71   -0.00905
   72    0.00120
   73   -0.00187
   74   -0.00621
   75    0.00394
   76   -0.00175
   77    0.01466
   78    0.04259
   79    0.03099
   80    0.05537
   81    0.18953
   82    0.01582
   83   -0.00907
   84    0.08016
   85   -0.00551
   86    0.01341
   87   -0.00401
   88   -0.00841
   89   -0.01127
   90   -0.00625
   91    0.00022
   92    0.01775
   93    0.02973
   94   -0.00660
   95   -0.09225
   96    0.18183
   97   -0.00574
   98   -0.05324
   99    0.11206
  100    0.00014
  101   -0.00547
  102    0.00346
  103   -0.00365
  104    0.00599
  105    0.01196
  106    0.00009
  107    0.02876
  108    0.04757
  109    0.00065
  110    0.08590
  111    0.20024
  112   -0.00035
  113    0.05335
  114    0.12532
  115    0.00110
  116   -0.00490
  117    0.00075
  118    0.00246
  119    0.00745
  120   -0.01396
  121   -0.04676
  122   -0.01250
  123   -0.00172
  124    0.00033
  125    0.00785
  126   -0.02601
  127   -0.00659
  128    0.00044
  129    0.00291
  130    0.00409
  131    0.15549
  132    0.04750
  133   -0.01092
  134   -0.00111
  135    0.00383
  136    0.06125
  137    0.01858
  138   -0.00503
  139    0.00266
  140    0.00196
 Ene= 0.0
 Spin= Alpha
 Occup=     2.0000
    1    0.00674
    2   -0.07836
    3   -0.21068
    4   -0.09248
    5   -0.08036
    6    0.08338
    7   -0.04722
    8   -0.08815
    9    0.06695
   10    0.00765
   11    0.00182
   12    0.00211
   13   -0.00129
   14    0.00005
   15   -0.00158
   16   -0.00482
   17    0.04508
   18    0.13927
   19   -0.20118
   20    0.05606
   21    0.07306
   22   -0.14920
   23    0.05062
   24    0.06042
   25    0.00303
   26   -0.00989
   27   -0.00053
   28    0.00042
   29    0.00126
   30   -0.00268
   31    0.00113
   32    0.01462
   33    0.03018
   34    0.06464
   35   -0.00760
   36   -0.03403
   37   -0.06417
   38   -0.04221
   39   -0.02348
   40    0.06954
   41   -0.06546
   42   -0.00063
   43   -0.02991
   44    0.00656
   45   -0.02190
   46   -0.00246
   47   -0.02298
   48   -0.03732
   49    0.12964
   50   -0.03518
   51    0.04729
   52    0.05970
   53    0.01522
   54    0.03752
   55    0.01096
   56   -0.01937
   57    0.00128
   58    0.00877
   59   -0.00560
   60    0.00123
   61   -0.00002
   62    0.00844
   63    0.04212
   64   -0.09700
   65    0.00384
   66    0.03262
   67   -0.02761
   68    0.03155
   69    0.02088
   70    0.01251
   71   -0.00864
   72   -0.00039
   73    0.00439
   74    0.00078
   75    0.00402
   76    0.00154
   77    0.04777
   78    0.06045
   79    0.06216
   80    0.06175
   81   -0.01518
   82    0.03819
   83   -0.00484
   84   -0.00613
   85    0.02066
   86   -0.01947
   87    0.00348
   88    0.00388
   89    0.00401
   90    0.01267
   91    0.00039
   92   -0.00350
   93    0.00047
   94   -0.11389
   95    0.00158
   96   -0.08554
   97   -0.08591
   98    0.00964
   99   -0.06371
  100   -0.00125
  101   -0.00105
  102    0.00062
  103   -0.00374
  104   -0.00209
  105   -0.00362
  106    0.00076
  107   -0.00305
  108   -0.00109
  109   -0.45354
  110   -0.18458
  111   -0.13496
  112   -0.32442
  113   -0.13481
  114   -0.09900
  115   -0.01006
  116    0.00838
  117    0.00130
  118    0.01039
  119   -0.00239
  120    0.00540
  121    0.07203
  122    0.06993
  123    0.00553
  124    0.00161
  125   -0.00043
  126   -0.03380
  127   -0.04036
  128    0.00091
  129    0.00258
  130    0.00173
  131    0.10303
  132    0.05034
  133   -0.00528
  134   -0.00348
  135    0.00253
  136   -0.04720
  137   -0.02339
  138   -0.00163
  139   -0.00428
  140    0.00135
 Ene= 0.0
 Spin= Alpha
 Occup=     2.0000
    1    0.00031
    2    0.00278
    3    0.00150
    4    0.01456
    5    0.02154
    6   -0.00930
    7    0.00778
    8    0.00756
    9   -0.00619
   10    0.00044
   11    0.00073
   12   -0.00026
   13   -0.00011
   14   -0.00032
   15    0.01562
   16   -0.00000
   17   -0.00223
   18   -0.00519
   19    0.01250
   20    0.04869
   21    0.15775
   22    0.00581
   23    0.02877
   24    0.10994
   25   -0.00115
   26    0.00022
   27    0.00065
   28    0.00266
   29   -0.00758
   30   -0.00173
   31   -0.00042
   32    0.00023
   33    0.01167
   34   -0.00602
   35   -0.03747
   36    0.22135
   37   -0.00874
   38   -0.00887
   39    0.11428
   40   -0.00066
   41    0.00006
   42    0.00170
   43    0.00524
   44   -0.00429
   45    0.02281
   46   -0.00017
   47    0.00170
   48    0.00486
   49    0.00249
   50   -0.03999