15
terachem gradient in au, energy -508.9501808495 , grad_rms 0.089425 , grad_max 0.264609 on atom 13
 C       0.0141437978      -0.0001621431     -0.0001959341
 C      -0.0268525735       0.0171909626      0.0002877309
 C      -0.0032612749       0.0013768034      0.0000324768
 C       0.0030972171       0.0029673334     -0.0000887263
 C       0.0054721557      -0.0031847120     -0.0000786428
 C      -0.0128034971       0.0009643889      0.0001985965
 H       0.0046149001      -0.0000220289     -0.0000205979
 H      -0.0000477094      -0.0014789493      0.0000202931
 H      -0.0020976929       0.0000515188      0.0000216462
 H       0.0000341292       0.0031226433      0.0000012826
 O      -0.0058678135       0.0002378375      0.0000826110
 H       0.0038630109      -0.0014724845     -0.0000610273
 N       0.2142924103      -0.1552183552     -0.0020213286
 O      -0.0797872746      -0.0313009682      0.0010416768
 O      -0.1147997853       0.1669281533      0.0007799431
