[Molden Format]
[Title]
Written by TeraChem
[Atoms] Angs
C   1   6      2.11486    1.18872    0.00109
C   2   6      2.76911   -0.05309   -0.00895
C   3   6      2.04304   -1.25050   -0.00300
C   4   6      0.66644   -1.22550    0.01291
C   5   6      0.00008   -0.00334    0.02325
C   6   6      0.71478    1.18509    0.01745
H   7   1      2.58029   -2.18421   -0.01105
H   8   1      0.11285   -2.15359    0.01756
H   9   1     -1.08084    0.02552    0.03582
H   10   1      0.21570    2.14290    0.02519
O   11   8      2.70716    2.39093   -0.00304
H   12   1      3.64980    2.28964   -0.01702
N   13   7      4.22168   -0.14829   -0.02560
O   14   8      4.86556    0.87173   -0.03660
O   15   8      4.71978   -1.23549   -0.02791
[GTO]
    1 0
 s    8 1.00
         6665.000000             0.000692
         1000.000000             0.005326
          228.000000             0.027061
           64.710000             0.101657
           21.060000             0.274575
            7.495000             0.448294
            2.797000             0.284903
            0.521500             0.015195
 s    8 1.00
         6665.000000            -0.000293
         1000.000000            -0.002318
          228.000000            -0.011500
           64.710000            -0.046827
           21.060000            -0.128466
            7.495000            -0.301266
            2.797000            -0.255631
            0.521500             1.093793
 s    1 1.00
            0.159600             1.000000
 p    3 1.00
            9.439000             0.056979
            2.002000             0.313207
            0.545600             0.760377
 p    1 1.00
            0.151700             1.000000
 d    1 1.00
            0.550000             1.000000

    2 0
 s    8 1.00
         6665.000000             0.000692
         1000.000000             0.005326
          228.000000             0.027061
           64.710000             0.101657
           21.060000             0.274575
            7.495000             0.448294
            2.797000             0.284903
            0.521500             0.015195
 s    8 1.00
         6665.000000            -0.000293
         1000.000000            -0.002318
          228.000000            -0.011500
           64.710000            -0.046827
           21.060000            -0.128466
            7.495000            -0.301266
            2.797000            -0.255631
            0.521500             1.093793
 s    1 1.00
            0.159600             1.000000
 p    3 1.00
            9.439000             0.056979
            2.002000             0.313207
            0.545600             0.760377
 p    1 1.00
            0.151700             1.000000
 d    1 1.00
            0.550000             1.000000

    3 0
 s    8 1.00
         6665.000000             0.000692
         1000.000000             0.005326
          228.000000             0.027061
           64.710000             0.101657
           21.060000             0.274575
            7.495000             0.448294
            2.797000             0.284903
            0.521500             0.015195
 s    8 1.00
         6665.000000            -0.000293
         1000.000000            -0.002318
          228.000000            -0.011500
           64.710000            -0.046827
           21.060000            -0.128466
            7.495000            -0.301266
            2.797000            -0.255631
            0.521500             1.093793
 s    1 1.00
            0.159600             1.000000
 p    3 1.00
            9.439000             0.056979
            2.002000             0.313207
            0.545600             0.760377
 p    1 1.00
            0.151700             1.000000
 d    1 1.00
            0.550000             1.000000

    4 0
 s    8 1.00
         6665.000000             0.000692
         1000.000000             0.005326
          228.000000             0.027061
           64.710000             0.101657
           21.060000             0.274575
            7.495000             0.448294
            2.797000             0.284903
            0.521500             0.015195
 s    8 1.00
         6665.000000            -0.000293
         1000.000000            -0.002318
          228.000000            -0.011500
           64.710000            -0.046827
           21.060000            -0.128466
            7.495000            -0.301266
            2.797000            -0.255631
            0.521500             1.093793
 s    1 1.00
            0.159600             1.000000
 p    3 1.00
            9.439000             0.056979
            2.002000             0.313207
            0.545600             0.760377
 p    1 1.00
            0.151700             1.000000
 d    1 1.00
            0.550000             1.000000

    5 0
 s    8 1.00
         6665.000000             0.000692
         1000.000000             0.005326
          228.000000             0.027061
           64.710000             0.101657
           21.060000             0.274575
            7.495000             0.448294
            2.797000             0.284903
            0.521500             0.015195
 s    8 1.00
         6665.000000            -0.000293
         1000.000000            -0.002318
          228.000000            -0.011500
           64.710000            -0.046827
           21.060000            -0.128466
            7.495000            -0.301266
            2.797000            -0.255631
            0.521500             1.093793
 s    1 1.00
            0.159600             1.000000
 p    3 1.00
            9.439000             0.056979
            2.002000             0.313207
            0.545600             0.760377
 p    1 1.00
            0.151700             1.000000
 d    1 1.00
            0.550000             1.000000

    6 0
 s    8 1.00
         6665.000000             0.000692
         1000.000000             0.005326
          228.000000             0.027061
           64.710000             0.101657
           21.060000             0.274575
            7.495000             0.448294
            2.797000             0.284903
            0.521500             0.015195
 s    8 1.00
         6665.000000            -0.000293
         1000.000000            -0.002318
          228.000000            -0.011500
           64.710000            -0.046827
           21.060000            -0.128466
            7.495000            -0.301266
            2.797000            -0.255631
            0.521500             1.093793
 s    1 1.00
            0.159600             1.000000
 p    3 1.00
            9.439000             0.056979
            2.002000             0.313207
            0.545600             0.760377
 p    1 1.00
            0.151700             1.000000
 d    1 1.00
            0.550000             1.000000

    7 0
 s    3 1.00
           13.010000             0.033499
            1.962000             0.234801
            0.444600             0.813683
 s    1 1.00
            0.122000             1.000000
 p    1 1.00
            0.727000             1.000000

    8 0
 s    3 1.00
           13.010000             0.033499
            1.962000             0.234801
            0.444600             0.813683
 s    1 1.00
            0.122000             1.000000
 p    1 1.00
            0.727000             1.000000

    9 0
 s    3 1.00
           13.010000             0.033499
            1.962000             0.234801
            0.444600             0.813683
 s    1 1.00
            0.122000             1.000000
 p    1 1.00
            0.727000             1.000000

   10 0
 s    3 1.00
           13.010000             0.033499
            1.962000             0.234801
            0.444600             0.813683
 s    1 1.00
            0.122000             1.000000
 p    1 1.00
            0.727000             1.000000

   11 0
 s    8 1.00
        11720.000000             0.000710
         1759.000000             0.005467
          400.800000             0.027823
          113.700000             0.104748
           37.030000             0.282921
           13.270000             0.448495
            5.025000             0.270817
            1.013000             0.015450
 s    8 1.00
        11720.000000            -0.000314
         1759.000000            -0.002482
          400.800000            -0.012316
          113.700000            -0.050539
           37.030000            -0.139385
           13.270000            -0.325077
            5.025000            -0.229848
            1.013000             1.095379
 s    1 1.00
            0.302300             1.000000
 p    3 1.00
           17.700000             0.062679
            3.854000             0.333537
            1.046000             0.741240
 p    1 1.00
            0.275300             1.000000
 d    1 1.00
            1.185000             1.000000

   12 0
 s    3 1.00
           13.010000             0.033499
            1.962000             0.234801
            0.444600             0.813683
 s    1 1.00
            0.122000             1.000000
 p    1 1.00
            0.727000             1.000000

   13 0
 s    8 1.00
         9046.000000             0.000700
         1357.000000             0.005386
          309.300000             0.027391
           87.730000             0.103151
           28.560000             0.278571
           10.210000             0.448295
            3.838000             0.278086
            0.746600             0.015432
 s    8 1.00
         9046.000000            -0.000305
         1357.000000            -0.002408
          309.300000            -0.011944
           87.730000            -0.048926
           28.560000            -0.134473
           10.210000            -0.315113
            3.838000            -0.242858
            0.746600             1.094382
 s    1 1.00
            0.224800             1.000000
 p    3 1.00
           13.550000             0.058906
            2.917000             0.320461
            0.797300             0.753042
 p    1 1.00
            0.218500             1.000000
 d    1 1.00
            0.817000             1.000000

   14 0
 s    8 1.00
        11720.000000             0.000710
         1759.000000             0.005467
          400.800000             0.027823
          113.700000             0.104748
           37.030000             0.282921
           13.270000             0.448495
            5.025000             0.270817
            1.013000             0.015450
 s    8 1.00
        11720.000000            -0.000314
         1759.000000            -0.002482
          400.800000            -0.012316
          113.700000            -0.050539
           37.030000            -0.139385
           13.270000            -0.325077
            5.025000            -0.229848
            1.013000             1.095379
 s    1 1.00
            0.302300             1.000000
 p    3 1.00
           17.700000             0.062679
            3.854000             0.333537
            1.046000             0.741240
 p    1 1.00
            0.275300             1.000000
 d    1 1.00
            1.185000             1.000000

   15 0
 s    8 1.00
        11720.000000             0.000710
         1759.000000             0.005467
          400.800000             0.027823
          113.700000             0.104748
           37.030000             0.282921
           13.270000             0.448495
            5.025000             0.270817
            1.013000             0.015450
 s    8 1.00
        11720.000000            -0.000314
         1759.000000            -0.002482
          400.800000            -0.012316
          113.700000            -0.050539
           37.030000            -0.139385
           13.270000            -0.325077
            5.025000            -0.229848
            1.013000             1.095379
 s    1 1.00
            0.302300             1.000000
 p    3 1.00
           17.700000             0.062679
            3.854000             0.333537
            1.046000             0.741240
 p    1 1.00
            0.275300             1.000000
 d    1 1.00
            1.185000             1.000000

[MO]
 Ene= 0.0
 Spin= Alpha
 Occup=    -0.3430
    1   -0.00001
    2   -0.00001
    3    0.00065
    4   -0.00100
    5    0.00028
    6   -0.06375
    7   -0.00127
    8    0.00012
    9   -0.04714
   10    0.00020
   11   -0.00017
   12   -0.00007
   13    0.00027
   14    0.00679
   15    0.01894
   16   -0.00008
   17   -0.00016
   18    0.00145
   19   -0.00117
   20    0.00002
   21   -0.12380
   22   -0.00019
   23   -0.00029
   24   -0.10026
   25    0.00015
   26   -0.00003
   27   -0.00018
   28   -0.00007
   29    0.00639
   30   -0.00375
   31   -0.00001
   32    0.00011
   33    0.00058
   34   -0.00081
   35   -0.00002
   36   -0.09015
   37   -0.00128
   38   -0.00037
   39   -0.02506
   40    0.00005
   41    0.00001
   42   -0.00010
   43   -0.00013
   44    0.00391
   45   -0.00878
   46    0.00003
   47   -0.00001
   48   -0.00101
   49   -0.00105
   50    0.00023
   51   -0.07997
   52   -0.00118
   53    0.00029
   54   -0.05346
   55   -0.00009
   56    0.00003
   57    0.00008
   58   -0.00008
   59   -0.00459
   60   -0.00638
   61   -0.00000
   62    0.00000
   63   -0.00005
   64   -0.00107
   65    0.00003
   66   -0.08896
   67   -0.00049
   68    0.00009
   69   -0.05809
   70   -0.00013
   71   -0.00001
   72    0.00014
   73    0.00001
   74   -0.00734
   75   -0.00083
   76    0.00001
   77    0.00013
   78   -0.00050
   79   -0.00070
   80    0.00023
   81   -0.08660
   82   -0.00076
   83    0.00011
   84   -0.04545
   85   -0.00004
   86   -0.00004
   87    0.00009
   88    0.00010
   89   -0.00237
   90    0.00714
   91    0.00025
   92   -0.00013
   93   -0.00004
   94    0.00002
   95   -0.00272
   96   -0.00003
   97   -0.00003
   98   -0.00002
   99   -0.00000
  100   -0.00215
  101    0.00005
  102    0.00006
  103   -0.00004
  104    0.00000
  105   -0.00314
  106   -0.00003
  107   -0.00015
  108   -0.00003
  109    0.00001
  110   -0.00275
  111   -0.00001
  112    0.00001
  113    0.00017
  114    0.00307
  115   -0.00085
  116    0.18513
  117    0.00251
  118   -0.00067
  119    0.15091
  120    0.00006
  121    0.00002
  122   -0.00009
  123   -0.00006
  124    0.00238
  125   -0.00338
  126    0.00011
  127   -0.00024
  128    0.00003
  129   -0.00002
  130    0.00539
  131    0.00006
  132    0.00008
  133   -0.00086
  134    0.00028
  135    0.00003
  136    0.03751
  137    0.00089
  138    0.00021
  139    0.04046
  140    0.00013
  141   -0.00032
  142    0.00027
  143   -0.00070
  144    0.00402
  145   -0.05547
  146    0.00001
  147    0.00004
  148   -0.00002
  149   -0.00414
  150   -0.00104
  151   -0.36805
  152   -0.00346
  153   -0.00086
  154   -0.30390
  155    0.00021
  156    0.00005
  157   -0.00026
  158    0.00014
  159    0.00990
  160    0.01018
  161   -0.00000
  162    0.00002
  163    0.00010
  164    0.00531
  165    0.00158
  166    0.41413
  167    0.00406
  168    0.00122
  169    0.32521
  170   -0.00020
  171    0.00010
  172    0.00009
  173    0.00017
  174   -0.00932
  175    0.01680
 Ene= 0.0
 Spin= Alpha
 Occup=     0.3430
    1    0.00000
    2    0.00014
    3    0.00088
    4    0.00179
    5   -0.00044
    6    0.13793
    7    0.00185
    8   -0.00114
    9    0.16201
   10   -0.00051
   11   -0.00006
   12    0.00059
   13    0.00013
   14   -0.02673
   15    0.01011
   16   -0.00001
   17    0.00005
   18    0.00080
   19   -0.00241
   20    0.00056
   21   -0.22027
   22   -0.00379
   23   -0.00074
   24   -0.33079
   25   -0.00079
   26    0.00007
   27    0.00076
   28   -0.00012
   29   -0.03961
   30   -0.00629
   31   -0.00000
   32   -0.00008
   33   -0.00082
   34    0.00238
   35   -0.00074
   36    0.21775
   37    0.00364
   38   -0.00192
   39    0.35754
   40   -0.00025
   41   -0.00000
   42    0.00018
   43   -0.00012
   44   -0.01118
   45   -0.01046
   46    0.00000
   47    0.00007
   48    0.00018
   49    0.00024
   50   -0.00003
   51    0.01362
   52    0.00013
   53    0.00022
   54    0.02247
   55    0.00056
   56    0.00006
   57   -0.00060
   58   -0.00026
   59    0.02705
   60   -0.01531
   61   -0.00001
   62    0.00003
   63    0.00041
   64   -0.00279
   65    0.00051
   66   -0.24092
   67   -0.00438
   68    0.00112
   69   -0.38117
   70    0.00013
   71   -0.00003
   72   -0.00010
   73    0.00010
   74    0.00651
   75    0.00999
   76    0.00001
   77   -0.00002
   78   -0.00051
   79    0.00184
   80   -0.00034
   81    0.16836
   82    0.00308
   83   -0.00003
   84    0.27117
   85    0.00043
   86   -0.00004
   87   -0.00040
   88    0.00009
   89    0.02251
   90    0.01255
   91   -0.00002
   92   -0.00075
   93    0.00011
   94   -0.00003
   95    0.01048
   96   -0.00007
   97   -0.00017
   98    0.00001
   99   -0.00001
  100    0.00079
  101   -0.00002
  102   -0.00022
  103   -0.00014
  104    0.00002
  105   -0.01184
  106   -0.00000
  107   -0.00025
  108    0.00009
  109   -0.00002
  110    0.00781
  111   -0.00001
  112   -0.00010
  113   -0.00012
  114   -0.00105
  115    0.00021
  116   -0.06621
  117   -0.00137
  118    0.00013
  119   -0.08013
  120   -0.00009
  121    0.00001
  122    0.00008
  123    0.00000
  124   -0.00441
  125   -0.00182
  126    0.00023
  127    0.00063
  128   -0.00003
  129    0.00001
  130   -0.00381
  131    0.00003
  132    0.00002
  133   -0.00044
  134   -0.00322
  135   -0.00091
  136   -0.27944
  137   -0.00296
  138   -0.00038
  139   -0.26526
  140    0.00063
  141   -0.00002
  142   -0.00058
  143   -0.00005
  144    0.02996
  145   -0.00594
  146   -0.00001
  147   -0.00012
  148   -0.00040
  149    0.00282
  150    0.00063
  151    0.21487
  152    0.00307
  153    0.00075
  154    0.23774
  155    0.00005
  156    0.00002
  157   -0.00008
  158    0.00003
  159    0.00288
  160    0.00275
  161   -0.00001
  162    0.00003
  163    0.00044
  164    0.00267
  165    0.00087
  166    0.24369
  167    0.00287
  168    0.00102
  169    0.26802
  170    0.00002
  171   -0.00001
  172   -0.00004
  173   -0.00002
  174    0.00137
  175   -0.00158
 Ene= 0.0
 Spin= Alpha
 Occup=    -0.1455
    1    0.00000
    2    0.00002
    3   -0.00011
    4   -0.00294
    5    0.00047
    6   -0.25173
    7   -0.00169
    8    0.00044
    9   -0.16551
   10    0.00054
   11   -0.00008
   12   -0.00045
   13    0.00018
   14    0.02581
   15    0.01948
   16    0.00001
   17   -0.00003
   18   -0.00040
   19   -0.00086
   20    0.00008
   21   -0.06929
   22   -0.00112
   23    0.00024
   24   -0.07518
   25   -0.00001
   26    0.00010
   27   -0.00009
   28   -0.00033
   29   -0.00001
   30   -0.02800
   31    0.00001
   32   -0.00002
   33   -0.00011
   34    0.00262
   35   -0.00036
   36    0.23648
   37    0.00259
   38   -0.00028
   39    0.20541
   40   -0.00033
   41    0.00001
   42    0.00034
   43    0.00003
   44   -0.01753
   45   -0.00171
   46   -0.00001
   47   -0.00000
   48    0.00021
   49    0.00274
   50   -0.00051
   51    0.22991
   52    0.00245
   53   -0.00044
   54    0.19755
   55    0.00037
   56    0.00000
   57   -0.00038
   58   -0.00006
   59    0.01840
   60   -0.00261
   61    0.00000
   62   -0.00003
   63   -0.00010
   64   -0.00086
   65    0.00016
   66   -0.06893
   67   -0.00076
   68    0.00010
   69   -0.05670
   70   -0.00009
   71    0.00010
   72   -0.00001
   73   -0.00033
   74   -0.00479
   75   -0.02914
   76   -0.00001
   77   -0.00000
   78    0.00032
   79   -0.00360
   80    0.00068
   81   -0.31263
   82   -0.00281
   83    0.00048
   84   -0.25193
   85   -0.00033
   86   -0.00004
   87    0.00036
   88    0.00013
   89   -0.01651
   90    0.00865
   91   -0.00013
   92   -0.00003
   93    0.00011
   94   -0.00003
   95    0.00897
   96    0.00003
   97    0.00003
   98    0.00011
   99   -0.00002
  100    0.00891
  101    0.00005
  102    0.00002
  103   -0.00003
  104    0.00001
  105   -0.00247
  106    0.00003
  107    0.00000
  108   -0.00013
  109    0.00002
  110   -0.01101
  111    0.00000
  112    0.00009
  113    0.00019
  114    0.00312
  115   -0.00057
  116    0.23882
  117    0.00293
  118   -0.00051
  119    0.22011
  120    0.00012
  121    0.00001
  122   -0.00014
  123   -0.00003
  124    0.00618
  125   -0.00028
  126   -0.00030
  127   -0.00011
  128    0.00022
  129   -0.00005
  130    0.01376
  131   -0.00001
  132   -0.00001
  133    0.00016
  134   -0.00010
  135   -0.00002
  136   -0.01350
  137   -0.00021
  138   -0.00004
  139   -0.00315
  140    0.00008
  141    0.00008
  142   -0.00018
  143    0.00016
  144    0.00494
  145    0.00991
  146   -0.00001
  147   -0.00002
  148    0.00003
  149    0.00139
  150    0.00007
  151    0.10214
  152    0.00121
  153    0.00004
  154    0.08753
  155   -0.00006
  156   -0.00001
  157    0.00007
  158   -0.00003
  159   -0.00244
  160   -0.00254
  161   -0.00001
  162   -0.00003
  163    0.00001
  164   -0.00127
  165   -0.00042
  166   -0.06191
  167   -0.00095
  168   -0.00030
  169   -0.04763
  170    0.00004
  171   -0.00003
  172   -0.00002
  173   -0.00004
  174    0.00129
  175   -0.00279
 Ene= 0.0
 Spin= Alpha
 Occup=     0.1455
    1    0.00002
    2    0.00014
    3   -0.00037
    4   -0.00384
    5    0.00066
    6   -0.33552
    7   -0.00588
    8    0.00176
    9   -0.50245
   10   -0.00010
   11   -0.00006
   12    0.00017
   13    0.00003
   14   -0.00676
   15   -0.00015
   16   -0.00002
   17    0.00001
   18    0.00134
   19    0.00146
   20   -0.00034
   21    0.10814
   22    0.00122
   23   -0.00016
   24    0.16647
   25    0.00001
   26    0.00022
   27   -0.00018
   28   -0.00058
   29    0.00066
   30   -0.04442
   31   -0.00002
   32    0.00002
   33    0.00034
   34    0.00245
   35   -0.00063
   36    0.20723
   37    0.00498
   38   -0.00200
   39    0.40030
   40    0.00069
   41   -0.00009
   42   -0.00064
   43    0.00007
   44    0.03355
   45    0.01140
   46   -0.00002
   47    0.00007
   48    0.00094
   49   -0.00395
   50    0.00061
   51   -0.33914
   52   -0.00744
   53    0.00123
   54   -0.63456
   55    0.00017
   56   -0.00004
   57   -0.00016
   58    0.00005
   59    0.00892
   60    0.00741
   61   -0.00001
   62    0.00001
   63   -0.00015
   64    0.00163
   65   -0.00033
   66    0.14453
   67    0.00310
   68   -0.00068
   69    0.28596
   70   -0.00011
   71   -0.00013
   72    0.00023
   73    0.00043
   74   -0.00485
   75    0.03643
   76   -0.00001
   77    0.00000
   78    0.00032
   79    0.00185
   80   -0.00033
   81    0.15996
   82    0.00305
   83   -0.00093
   84    0.26907
   85   -0.00069
   86    0.00002
   87    0.00065
   88   -0.00004
   89   -0.03373
   90   -0.00919
   91   -0.00005
   92   -0.00164
   93    0.00012
   94   -0.00003
   95    0.01044
   96   -0.00010
   97   -0.00075
   98   -0.00021
   99    0.00003
  100   -0.01759
  101   -0.00002
  102   -0.00032
  103    0.00009
  104   -0.00002
  105    0.00793
  106   -0.00001
  107    0.00003
  108    0.00009
  109   -0.00002
  110    0.00829
  111    0.00000
  112    0.00003
  113   -0.00003
  114    0.00179
  115   -0.00024
  116    0.13861
  117    0.00257
  118   -0.00036
  119    0.19436
  120    0.00013
  121   -0.00002
  122   -0.00012
  123    0.00007
  124    0.00690
  125    0.00770
  126   -0.00028
  127   -0.00011
  128    0.00014
  129   -0.00006
  130    0.00902
  131    0.00004
  132   -0.00000
  133   -0.00063
  134   -0.00113
  135   -0.00034
  136   -0.09412
  137   -0.00158
  138   -0.00056
  139   -0.11161
  140   -0.00004
  141   -0.00000
  142    0.00010
  143   -0.00001
  144   -0.00574
  145   -0.00240
  146   -0.00004
  147   -0.00001
  148    0.00057
  149    0.00045
  150    0.00006
  151    0.04651
  152    0.00048
  153   -0.00012
  154    0.05986
  155    0.00002
  156   -0.00000
  157   -0.00008
  158    0.00004
  159    0.00181
  160    0.00261
  161   -0.00005
  162   -0.00012
  163    0.00025
  164    0.00055
  165    0.00019
  166    0.01827
  167    0.00072
  168    0.00034
  169    0.04724
  170   -0.00002
  171   -0.00004
  172   -0.00001
  173   -0.00003
  174   -0.00058
  175   -0.00368
 Ene= 0.0
 Spin= Alpha
 Occup=    -0.0208
    1    0.00001
    2    0.00011
    3    0.00012
    4    0.00151
    5   -0.00027
    6    0.13225
    7    0.00056
    8   -0.00025
    9    0.08940
   10    0.00040
   11    0.00007
   12   -0.00046
   13   -0.00034
   14    0.01874
   15   -0.02746
   16    0.00000
   17    0.00004
   18    0.00046
   19    0.00428
   20   -0.00071
   21    0.35308
   22    0.00349
   23   -0.00055
   24    0.29477
   25   -0.00023
   26    0.00000
   27    0.00025
   28   -0.00001
   29   -0.01308
   30   -0.00024
   31    0.00000
   32   -0.00004
   33   -0.00003
   34    0.00165
   35   -0.00044
   36    0.15940
   37    0.00153
   38   -0.00067
   39    0.13728
   40    0.00046
   41   -0.00010
   42   -0.00038
   43    0.00019
   44    0.02261
   45    0.02063
   46    0.00000
   47    0.00005
   48    0.00005
   49   -0.00201
   50    0.00038
   51   -0.18751
   52   -0.00199
   53    0.00041
   54   -0.17997
   55    0.00037
   56    0.00005
   57   -0.00042
   58   -0.00025
   59    0.01768
   60   -0.01716
   61    0.00000
   62   -0.00001
   63   -0.00011
   64   -0.00352
   65    0.00063
   66   -0.29651
   67   -0.00236
   68    0.00040
   69   -0.20894
   70   -0.00026
   71   -0.00002
   72    0.00028
   73    0.00004
   74   -0.01351
   75    0.00151
   76    0.00001
   77   -0.00002
   78   -0.00056
   79   -0.00188
   80    0.00034
   81   -0.16764
   82   -0.00179
   83    0.00020
   84   -0.13631
   85    0.00034
   86   -0.00007
   87   -0.00026
   88    0.00015
   89    0.01628
   90    0.01593
   91   -0.00008
   92   -0.00041
   93    0.00007
   94   -0.00002
   95    0.00624
   96   -0.00009
   97   -0.00005
   98   -0.00009
   99    0.00001
  100   -0.00774
  101    0.00010
  102    0.00017
  103   -0.00012
  104    0.00002
  105   -0.01086
  106   -0.00001
  107    0.00018
  108   -0.00008
  109    0.00001
  110   -0.00688
  111   -0.00000
  112   -0.00009
  113   -0.00017
  114   -0.00104
  115    0.00005
  116   -0.10034
  117   -0.00112
  118    0.00003
  119   -0.09523
  120   -0.00004
  121    0.00001
  122    0.00004
  123   -0.00001
  124   -0.00225
  125   -0.00105
  126    0.00028
  127    0.00025
  128   -0.00009
  129    0.00002
  130   -0.00414
  131    0.00001
  132    0.00003
  133   -0.00002
  134   -0.00154
  135   -0.00015
  136   -0.11541
  137   -0.00166
  138   -0.00054
  139   -0.13950
  140   -0.00031
  141   -0.00008
  142    0.00040
  143    0.00004
  144   -0.01887
  145   -0.00269
  146    0.00001
  147    0.00007
  148    0.00011
  149   -0.00026
  150   -0.00069
  151   -0.05559
  152    0.00004
  153   -0.00044
  154   -0.01819
  155    0.00006
  156    0.00006
  157   -0.00011
  158    0.00009
  159    0.00373
  160    0.00629
  161   -0.00000
  162   -0.00007
  163   -0.00013
  164    0.00032
  165   -0.00037
  166   -0.00191
  167    0.00064
  168   -0.00016
  169    0.02774
  170    0.00004
  171   -0.00005
  172    0.00000
  173   -0.00004
  174    0.00123
  175   -0.00506
 Ene= 0.0
 Spin= Alpha
 Occup=     0.0208
    1   -0.00002
    2   -0.00031
    3   -0.00139
    4   -0.00095
    5    0.00043
    6   -0.06256
    7   -0.00045
    8    0.00095
    9   -0.09366
   10   -0.00055
   11   -0.00004
   12    0.00056
   13    0.00029
   14   -0.02590
   15    0.01949
   16    0.00005
   17    0.00009
   18   -0.00133
   19   -0.00195
   20    0.00033
   21   -0.16916
   22   -0.00340
   23    0.00209
   24   -0.29950
   25    0.00055
   26    0.00000
   27   -0.00052
   28   -0.00000
   29    0.02518
   30   -0.01421
   31    0.00004
   32    0.00010
   33    0.00037
   34    0.00122
   35    0.00035
   36    0.10829
   37    0.00246
   38    0.00159
   39    0.19630
   40   -0.00012
   41    0.00010
   42    0.00015
   43   -0.00013
   44   -0.00921
   45   -0.01540
   46    0.00001
   47   -0.00009
   48   -0.00076
   49    0.00024
   50    0.00000
   51    0.01823
   52    0.00121
   53   -0.00024
   54    0.08646
   55    0.00035
   56    0.00006
   57   -0.00041
   58   -0.00018
   59    0.01778
   60   -0.01660
   61    0.00001
   62   -0.00007
   63   -0.00037
   64   -0.00237
   65    0.00054
   66   -0.20257
   67   -0.00476
   68    0.00069
   69   -0.41005
   70    0.00013
   71   -0.00006
   72   -0.00007
   73    0.00015
   74    0.00594
   75    0.01334
   76   -0.00002
   77    0.00008
   78    0.00145
   79    0.00256
   80   -0.00041
   81    0.20754
   82    0.00514
   83   -0.00090
   84    0.40728
   85    0.00013
   86   -0.00006
   87   -0.00007
   88    0.00019
   89    0.00553
   90    0.01557
   91   -0.00003
   92    0.00193
   93    0.00008
   94   -0.00000
   95    0.00529
   96    0.00013
   97    0.00091
   98    0.00002
   99    0.00001
  100    0.00172
  101    0.00007
  102    0.00042
  103   -0.00012
  104    0.00003
  105   -0.01058
  106   -0.00010
  107   -0.00047
  108    0.00013
  109   -0.00001
  110    0.01149
  111    0.00001
  112    0.00012
  113    0.00013
  114    0.00011
  115    0.00006
  116    0.00927
  117    0.00044
  118    0.00015
  119    0.02483
  120   -0.00002
  121   -0.00002
  122    0.00004
  123    0.00003
  124   -0.00093
  125    0.00250
  126   -0.00013
  127   -0.00097
  128   -0.00011
  129    0.00001
  130   -0.00582
  131   -0.00002
  132   -0.00000
  133    0.00038
  134    0.00436
  135    0.00126
  136    0.37434
  137    0.00493
  138    0.00108
  139    0.43638
  140   -0.00008
  141    0.00017
  142   -0.00011
  143    0.00024
  144   -0.00345
  145    0.02901
  146   -0.00003
  147   -0.00011
  148    0.00021
  149    0.00025
  150    0.00003
  151   -0.00455
  152   -0.00104
  153   -0.00033
  154   -0.10618
  155   -0.00019
  156   -0.00011
  157    0.00025
  158   -0.00020
  159   -0.00913
  160   -0.01450