[Molden Format]
[Title]
Written by TeraChem
[Atoms] Angs
C   1   6      2.11486    1.18872    0.00109
C   2   6      2.76911   -0.05309   -0.00895
C   3   6      2.04304   -1.25050   -0.00300
C   4   6      0.66644   -1.22550    0.01291
C   5   6      0.00008   -0.00334    0.02325
C   6   6      0.71478    1.18509    0.01745
H   7   1      2.58029   -2.18421   -0.01105
H   8   1      0.11285   -2.15359    0.01756
H   9   1     -1.08084    0.02552    0.03582
H   10   1      0.21570    2.14290    0.02519
O   11   8      2.70716    2.39093   -0.00304
H   12   1      3.64980    2.28964   -0.01702
N   13   7      4.22168   -0.14829   -0.02560
O   14   8      4.86556    0.87173   -0.03660
O   15   8      4.71978   -1.23549   -0.02791
[GTO]
    1 0
 s    8 1.00
         6665.000000             0.000692
         1000.000000             0.005326
          228.000000             0.027061
           64.710000             0.101657
           21.060000             0.274575
            7.495000             0.448294
            2.797000             0.284903
            0.521500             0.015195
 s    8 1.00
         6665.000000            -0.000293
         1000.000000            -0.002318
          228.000000            -0.011500
           64.710000            -0.046827
           21.060000            -0.128466
            7.495000            -0.301266
            2.797000            -0.255631
            0.521500             1.093793
 s    1 1.00
            0.159600             1.000000
 p    3 1.00
            9.439000             0.056979
            2.002000             0.313207
            0.545600             0.760377
 p    1 1.00
            0.151700             1.000000
 d    1 1.00
            0.550000             1.000000

    2 0
 s    8 1.00
         6665.000000             0.000692
         1000.000000             0.005326
          228.000000             0.027061
           64.710000             0.101657
           21.060000             0.274575
            7.495000             0.448294
            2.797000             0.284903
            0.521500             0.015195
 s    8 1.00
         6665.000000            -0.000293
         1000.000000            -0.002318
          228.000000            -0.011500
           64.710000            -0.046827
           21.060000            -0.128466
            7.495000            -0.301266
            2.797000            -0.255631
            0.521500             1.093793
 s    1 1.00
            0.159600             1.000000
 p    3 1.00
            9.439000             0.056979
            2.002000             0.313207
            0.545600             0.760377
 p    1 1.00
            0.151700             1.000000
 d    1 1.00
            0.550000             1.000000

    3 0
 s    8 1.00
         6665.000000             0.000692
         1000.000000             0.005326
          228.000000             0.027061
           64.710000             0.101657
           21.060000             0.274575
            7.495000             0.448294
            2.797000             0.284903
            0.521500             0.015195
 s    8 1.00
         6665.000000            -0.000293
         1000.000000            -0.002318
          228.000000            -0.011500
           64.710000            -0.046827
           21.060000            -0.128466
            7.495000            -0.301266
            2.797000            -0.255631
            0.521500             1.093793
 s    1 1.00
            0.159600             1.000000
 p    3 1.00
            9.439000             0.056979
            2.002000             0.313207
            0.545600             0.760377
 p    1 1.00
            0.151700             1.000000
 d    1 1.00
            0.550000             1.000000

    4 0
 s    8 1.00
         6665.000000             0.000692
         1000.000000             0.005326
          228.000000             0.027061
           64.710000             0.101657
           21.060000             0.274575
            7.495000             0.448294
            2.797000             0.284903
            0.521500             0.015195
 s    8 1.00
         6665.000000            -0.000293
         1000.000000            -0.002318
          228.000000            -0.011500
           64.710000            -0.046827
           21.060000            -0.128466
            7.495000            -0.301266
            2.797000            -0.255631
            0.521500             1.093793
 s    1 1.00
            0.159600             1.000000
 p    3 1.00
            9.439000             0.056979
            2.002000             0.313207
            0.545600             0.760377
 p    1 1.00
            0.151700             1.000000
 d    1 1.00
            0.550000             1.000000

    5 0
 s    8 1.00
         6665.000000             0.000692
         1000.000000             0.005326
          228.000000             0.027061
           64.710000             0.101657
           21.060000             0.274575
            7.495000             0.448294
            2.797000             0.284903
            0.521500             0.015195
 s    8 1.00
         6665.000000            -0.000293
         1000.000000            -0.002318
          228.000000            -0.011500
           64.710000            -0.046827
           21.060000            -0.128466
            7.495000            -0.301266
            2.797000            -0.255631
            0.521500             1.093793
 s    1 1.00
            0.159600             1.000000
 p    3 1.00
            9.439000             0.056979
            2.002000             0.313207
            0.545600             0.760377
 p    1 1.00
            0.151700             1.000000
 d    1 1.00
            0.550000             1.000000

    6 0
 s    8 1.00
         6665.000000             0.000692
         1000.000000             0.005326
          228.000000             0.027061
           64.710000             0.101657
           21.060000             0.274575
            7.495000             0.448294
            2.797000             0.284903
            0.521500             0.015195
 s    8 1.00
         6665.000000            -0.000293
         1000.000000            -0.002318
          228.000000            -0.011500
           64.710000            -0.046827
           21.060000            -0.128466
            7.495000            -0.301266
            2.797000            -0.255631
            0.521500             1.093793
 s    1 1.00
            0.159600             1.000000
 p    3 1.00
            9.439000             0.056979
            2.002000             0.313207
            0.545600             0.760377
 p    1 1.00
            0.151700             1.000000
 d    1 1.00
            0.550000             1.000000

    7 0
 s    3 1.00
           13.010000             0.033499
            1.962000             0.234801
            0.444600             0.813683
 s    1 1.00
            0.122000             1.000000
 p    1 1.00
            0.727000             1.000000

    8 0
 s    3 1.00
           13.010000             0.033499
            1.962000             0.234801
            0.444600             0.813683
 s    1 1.00
            0.122000             1.000000
 p    1 1.00
            0.727000             1.000000

    9 0
 s    3 1.00
           13.010000             0.033499
            1.962000             0.234801
            0.444600             0.813683
 s    1 1.00
            0.122000             1.000000
 p    1 1.00
            0.727000             1.000000

   10 0
 s    3 1.00
           13.010000             0.033499
            1.962000             0.234801
            0.444600             0.813683
 s    1 1.00
            0.122000             1.000000
 p    1 1.00
            0.727000             1.000000

   11 0
 s    8 1.00
        11720.000000             0.000710
         1759.000000             0.005467
          400.800000             0.027823
          113.700000             0.104748
           37.030000             0.282921
           13.270000             0.448495
            5.025000             0.270817
            1.013000             0.015450
 s    8 1.00
        11720.000000            -0.000314
         1759.000000            -0.002482
          400.800000            -0.012316
          113.700000            -0.050539
           37.030000            -0.139385
           13.270000            -0.325077
            5.025000            -0.229848
            1.013000             1.095379
 s    1 1.00
            0.302300             1.000000
 p    3 1.00
           17.700000             0.062679
            3.854000             0.333537
            1.046000             0.741240
 p    1 1.00
            0.275300             1.000000
 d    1 1.00
            1.185000             1.000000

   12 0
 s    3 1.00
           13.010000             0.033499
            1.962000             0.234801
            0.444600             0.813683
 s    1 1.00
            0.122000             1.000000
 p    1 1.00
            0.727000             1.000000

   13 0
 s    8 1.00
         9046.000000             0.000700
         1357.000000             0.005386
          309.300000             0.027391
           87.730000             0.103151
           28.560000             0.278571
           10.210000             0.448295
            3.838000             0.278086
            0.746600             0.015432
 s    8 1.00
         9046.000000            -0.000305
         1357.000000            -0.002408
          309.300000            -0.011944
           87.730000            -0.048926
           28.560000            -0.134473
           10.210000            -0.315113
            3.838000            -0.242858
            0.746600             1.094382
 s    1 1.00
            0.224800             1.000000
 p    3 1.00
           13.550000             0.058906
            2.917000             0.320461
            0.797300             0.753042
 p    1 1.00
            0.218500             1.000000
 d    1 1.00
            0.817000             1.000000

   14 0
 s    8 1.00
        11720.000000             0.000710
         1759.000000             0.005467
          400.800000             0.027823
          113.700000             0.104748
           37.030000             0.282921
           13.270000             0.448495
            5.025000             0.270817
            1.013000             0.015450
 s    8 1.00
        11720.000000            -0.000314
         1759.000000            -0.002482
          400.800000            -0.012316
          113.700000            -0.050539
           37.030000            -0.139385
           13.270000            -0.325077
            5.025000            -0.229848
            1.013000             1.095379
 s    1 1.00
            0.302300             1.000000
 p    3 1.00
           17.700000             0.062679
            3.854000             0.333537
            1.046000             0.741240
 p    1 1.00
            0.275300             1.000000
 d    1 1.00
            1.185000             1.000000

   15 0
 s    8 1.00
        11720.000000             0.000710
         1759.000000             0.005467
          400.800000             0.027823
          113.700000             0.104748
           37.030000             0.282921
           13.270000             0.448495
            5.025000             0.270817
            1.013000             0.015450
 s    8 1.00
        11720.000000            -0.000314
         1759.000000            -0.002482
          400.800000            -0.012316
          113.700000            -0.050539
           37.030000            -0.139385
           13.270000            -0.325077
            5.025000            -0.229848
            1.013000             1.095379
 s    1 1.00
            0.302300             1.000000
 p    3 1.00
           17.700000             0.062679
            3.854000             0.333537
            1.046000             0.741240
 p    1 1.00
            0.275300             1.000000
 d    1 1.00
            1.185000             1.000000

[MO]
 Ene= 0.0
 Spin= Alpha
 Occup=    -0.7567
    1   -0.00001
    2   -0.00008
    3    0.00011
    4   -0.00105
    5    0.00020
    6   -0.08827
    7   -0.00027
    8    0.00000
    9   -0.05460
   10   -0.00045
   11   -0.00010
   12    0.00053
   13    0.00034
   14   -0.02168
   15    0.02685
   16   -0.00001
   17   -0.00001
   18    0.00015
   19   -0.00428
   20    0.00067
   21   -0.36975
   22   -0.00340
   23    0.00002
   24   -0.29685
   25    0.00009
   26   -0.00000
   27   -0.00010
   28    0.00002
   29    0.00536
   30    0.00468
   31   -0.00001
   32    0.00006
   33   -0.00007
   34   -0.00205
   35    0.00032
   36   -0.20283
   37   -0.00186
   38    0.00007
   39   -0.14304
   40   -0.00036
   41    0.00009
   42    0.00025
   43   -0.00021
   44   -0.01635
   45   -0.02108
   46    0.00000
   47   -0.00004
   48   -0.00018
   49    0.00086
   50   -0.00017
   51    0.09289
   52    0.00068
   53   -0.00004
   54    0.07957
   55   -0.00042
   56   -0.00004
   57    0.00046
   58    0.00022
   59   -0.02015
   60    0.01575
   61   -0.00000
   62    0.00004
   63    0.00007
   64    0.00333
   65   -0.00061
   66    0.27518
   67    0.00251
   68   -0.00032
   69    0.21328
   70    0.00022
   71   -0.00001
   72   -0.00022
   73    0.00005
   74    0.01169
   75    0.00575
   76   -0.00001
   77    0.00001
   78    0.00024
   79    0.00232
   80   -0.00048
   81    0.20207
   82    0.00212
   83   -0.00026
   84    0.16281
   85   -0.00026
   86    0.00007
   87    0.00019
   88   -0.00016
   89   -0.01273
   90   -0.01585
   91    0.00019
   92    0.00001
   93   -0.00009
   94    0.00003
   95   -0.00747
   96    0.00007
   97    0.00005
   98    0.00004
   99   -0.00000
  100    0.00388
  101   -0.00012
  102   -0.00009
  103    0.00011
  104   -0.00002
  105    0.01026
  106   -0.00004
  107   -0.00004
  108    0.00009
  109   -0.00001
  110    0.00807
  111    0.00000
  112    0.00005
  113    0.00011
  114    0.00084
  115    0.00000
  116    0.09484
  117    0.00083
  118   -0.00003
  119    0.08367
  120    0.00003
  121   -0.00000
  122   -0.00003
  123    0.00000
  124    0.00156
  125    0.00001
  126   -0.00025
  127    0.00003
  128    0.00012
  129   -0.00003
  130    0.00447
  131    0.00000
  132   -0.00002
  133   -0.00013
  134    0.00035
  135   -0.00028
  136    0.02364
  137    0.00055
  138    0.00040
  139    0.03877
  140    0.00045
  141    0.00002
  142   -0.00047
  143   -0.00020
  144    0.02421
  145   -0.00334
  146   -0.00001
  147   -0.00009
  148   -0.00022
  149    0.00029
  150    0.00136
  151    0.08613
  152    0.00028
  153    0.00103
  154    0.06652
  155   -0.00000
  156   -0.00007
  157    0.00007
  158   -0.00006
  159   -0.00198
  160   -0.00379
  161   -0.00000
  162    0.00008
  163    0.00026
  164    0.00194
  165    0.00131
  166    0.10986
  167    0.00138
  168    0.00098
  169    0.08437
  170   -0.00007
  171    0.00008
  172   -0.00001
  173    0.00006
  174   -0.00142
  175    0.00532
 Ene= 0.0
 Spin= Alpha
 Occup=     0.7567
    1   -0.00001
    2   -0.00020
    3   -0.00119
    4   -0.00274
    5    0.00069
    6   -0.21456
    7   -0.00306
    8    0.00167
    9   -0.27219
   10    0.00029
   11    0.00001
   12   -0.00034
   13    0.00001
   14    0.01570
   15   -0.00146
   16    0.00001
   17   -0.00005
   18   -0.00069
   19    0.00168
   20   -0.00045
   21    0.15200
   22    0.00268
   23    0.00127
   24    0.22979
   25    0.00093
   26   -0.00003
   27   -0.00092
   28    0.00001
   29    0.04585
   30   -0.00655
   31    0.00001
   32    0.00013
   33    0.00104
   34   -0.00153
   35    0.00068
   36   -0.14708
   37   -0.00208
   38    0.00190
   39   -0.21747
   40    0.00028
   41    0.00002
   42   -0.00021
   43    0.00007
   44    0.01191
   45    0.00579
   46   -0.00000
   47   -0.00008
   48   -0.00037
   49   -0.00065
   50    0.00011
   51   -0.04739
   52   -0.00093
   53   -0.00010
   54   -0.08601
   55   -0.00042
   56   -0.00004
   57    0.00044
   58    0.00021
   59   -0.01984
   60    0.01177
   61    0.00001
   62   -0.00004
   63   -0.00048
   64    0.00240
   65   -0.00044
   66    0.20857
   67    0.00339
   68   -0.00100
   69    0.29778
   70   -0.00008
   71   -0.00001
   72    0.00009
   73    0.00001
   74   -0.00446
   75   -0.00025
   76   -0.00002
   77    0.00007
   78    0.00090
   79   -0.00059
   80    0.00016
   81   -0.06665
   82   -0.00090
   83   -0.00037
   84   -0.08705
   85   -0.00051
   86    0.00003
   87    0.00049
   88   -0.00004
   89   -0.02627
   90   -0.00959
   91    0.00005
   92    0.00099
   93   -0.00007
   94    0.00002
   95   -0.00688
   96    0.00008
   97    0.00025
   98   -0.00003
   99    0.00001
  100   -0.00240
  101    0.00003
  102    0.00023
  103    0.00012
  104   -0.00001
  105    0.00998
  106   -0.00002
  107    0.00004
  108   -0.00003
  109    0.00001
  110   -0.00245
  111    0.00001
  112    0.00014
  113    0.00018
  114    0.00162
  115   -0.00031
  116    0.10314
  117    0.00210
  118   -0.00021
  119    0.12809
  120    0.00010
  121   -0.00002
  122   -0.00009
  123    0.00002
  124    0.00524
  125    0.00364
  126   -0.00028
  127   -0.00095
  128    0.00001
  129   -0.00002
  130    0.00340
  131   -0.00002
  132   -0.00001
  133    0.00026
  134    0.00426
  135    0.00120
  136    0.36893
  137    0.00421
  138    0.00063
  139    0.37240
  140   -0.00061
  141    0.00002
  142    0.00057
  143   -0.00001
  144   -0.02958
  145    0.00384
  146   -0.00001
  147    0.00008
  148    0.00053
  149   -0.00329
  150   -0.00082
  151   -0.26603
  152   -0.00378
  153   -0.00103
  154   -0.30435
  155   -0.00007
  156   -0.00004
  157    0.00008
  158   -0.00006
  159   -0.00331
  160   -0.00469
  161    0.00001
  162   -0.00003
  163   -0.00041
  164   -0.00315
  165   -0.00095
  166   -0.28034
  167   -0.00355
  168   -0.00115
  169   -0.32035
  170   -0.00005
  171    0.00002
  172    0.00005
  173    0.00004
  174   -0.00282
  175    0.00396
 Ene= 0.0
 Spin= Alpha
 Occup=    -0.1072
    1   -0.00000
    2   -0.00001
    3   -0.00009
    4   -0.00326
    5    0.00061
    6   -0.26828
    7   -0.00191
    8    0.00047
    9   -0.17941
   10    0.00046
   11   -0.00012
   12   -0.00034
   13    0.00023
   14    0.02116
   15    0.02259
   16    0.00001
   17    0.00004
   18   -0.00005
   19   -0.00114
   20    0.00013
   21   -0.12163
   22   -0.00140
   23    0.00016
   24   -0.12211
   25    0.00002
   26    0.00009
   27   -0.00010
   28   -0.00035
   29   -0.00008
   30   -0.02903
   31    0.00000
   32    0.00003
   33   -0.00002
   34    0.00260
   35   -0.00048
   36    0.22934
   37    0.00234
   38   -0.00045
   39    0.20327
   40   -0.00042
   41    0.00001
   42    0.00041
   43    0.00001
   44   -0.02172
   45   -0.00436
   46   -0.00000
   47   -0.00001
   48    0.00003
   49    0.00321
   50   -0.00055
   51    0.27112
   52    0.00269
   53   -0.00043
   54    0.22729
   55    0.00033
   56   -0.00001
   57   -0.00033
   58   -0.00002
   59    0.01656
   60    0.00108
   61   -0.00000
   62   -0.00000
   63   -0.00007
   64   -0.00013
   65   -0.00001
   66   -0.00790
   67   -0.00025
   68    0.00003
   69   -0.01451
   70   -0.00002
   71    0.00010
   72   -0.00008
   73   -0.00033
   74   -0.00146
   75   -0.02904
   76   -0.00001
   77    0.00002
   78    0.00033
   79   -0.00299
   80    0.00056
   81   -0.26996
   82   -0.00233
   83    0.00041
   84   -0.21648
   85   -0.00038
   86   -0.00003
   87    0.00040
   88    0.00010
   89   -0.01901
   90    0.00503
   91   -0.00002
   92   -0.00008
   93    0.00009
   94   -0.00002
   95    0.00871
   96   -0.00002
   97    0.00001
   98    0.00012
   99   -0.00002
  100    0.01049
  101    0.00005
  102    0.00001
  103   -0.00000
  104   -0.00000
  105   -0.00027
  106   -0.00005
  107   -0.00005
  108   -0.00011
  109    0.00002
  110   -0.00938
  111    0.00000
  112    0.00008
  113    0.00018
  114    0.00312
  115   -0.00055
  116    0.24063
  117    0.00295
  118   -0.00051
  119    0.22405
  120    0.00013
  121    0.00000
  122   -0.00015
  123   -0.00002
  124    0.00630
  125    0.00022
  126   -0.00029
  127   -0.00007
  128    0.00022
  129   -0.00005
  130    0.01362
  131   -0.00001
  132   -0.00000
  133    0.00014
  134   -0.00029
  135   -0.00011
  136   -0.01111
  137   -0.00011
  138    0.00009
  139    0.00233
  140    0.00021
  141   -0.00001
  142   -0.00022
  143    0.00003
  144    0.00825
  145    0.00662
  146   -0.00001
  147   -0.00005
  148   -0.00005
  149    0.00133
  150    0.00047
  151    0.09362
  152    0.00117
  153    0.00033
  154    0.08010
  155   -0.00004
  156   -0.00003
  157    0.00006
  158   -0.00004
  159   -0.00207
  160   -0.00245
  161   -0.00001
  162   -0.00001
  163    0.00007
  164    0.00017
  165    0.00020
  166   -0.02800
  167    0.00012
  168    0.00017
  169   -0.02082
  170    0.00000
  171    0.00000
  172   -0.00001
  173   -0.00000
  174    0.00068
  175   -0.00137
 Ene= 0.0
 Spin= Alpha
 Occup=     0.1072
    1    0.00000
    2   -0.00006
    3   -0.00071
    4   -0.00312
    5    0.00067
    6   -0.26374
    7   -0.00458
    8    0.00168
    9   -0.40756
   10   -0.00057
   11   -0.00010
   12    0.00066
   13    0.00027
   14   -0.02936
   15    0.01607
   16   -0.00001
   17    0.00002
   18    0.00092
   19   -0.00085
   20    0.00010
   21   -0.09250
   22   -0.00212
   23    0.00084
   24   -0.16341
   25    0.00013
   26    0.00019
   27   -0.00027
   28   -0.00051
   29    0.00510
   30   -0.04688
   31    0.00001
   32    0.00008
   33    0.00030
   34    0.00347
   35   -0.00055
   36    0.29577
   37    0.00618
   38   -0.00124
   39    0.54368
   40    0.00036
   41   -0.00000
   42   -0.00033
   43   -0.00008
   44    0.01622
   45   -0.00422
   46    0.00000
   47   -0.00000
   48   -0.00022
   49   -0.00270
   50    0.00049
   51   -0.23152
   52   -0.00497
   53    0.00101
   54   -0.41901
   55    0.00050
   56    0.00003
   57   -0.00054
   58   -0.00015
   59    0.02576
   60   -0.00853
   61    0.00000
   62   -0.00003
   63   -0.00047
   64   -0.00088
   65    0.00016
   66   -0.07582
   67   -0.00161
   68    0.00019
   69   -0.14034
   70    0.00005
   71   -0.00015
   72    0.00010
   73    0.00044
   74    0.00233
   75    0.03830
   76   -0.00001
   77    0.00006
   78    0.00071
   79    0.00360
   80   -0.00060
   81    0.30100
   82    0.00636
   83   -0.00137
   84    0.54129
   85   -0.00034
   86   -0.00002
   87    0.00036
   88    0.00011
   89   -0.01657
   90    0.00587
   91    0.00004
   92   -0.00017
   93    0.00018
   94   -0.00002
   95    0.01465
   96   -0.00001
   97    0.00018
   98   -0.00013
   99    0.00002
  100   -0.01155
  101    0.00002
  102    0.00020
  103   -0.00004
  104    0.00001
  105   -0.00361
  106   -0.00004
  107   -0.00019
  108    0.00018
  109   -0.00003
  110    0.01573
  111    0.00001
  112    0.00008
  113    0.00006
  114    0.00146
  115   -0.00022
  116    0.10471
  117    0.00214
  118   -0.00024
  119    0.15195
  120    0.00007
  121   -0.00002
  122   -0.00005
  123    0.00007
  124    0.00357
  125    0.00690
  126   -0.00018
  127   -0.00061
  128    0.00000
  129   -0.00004
  130    0.00159
  131    0.00005
  132    0.00004
  133   -0.00065
  134    0.00100
  135    0.00028
  136    0.08844
  137    0.00125
  138    0.00018
  139    0.11823
  140    0.00009
  141    0.00000
  142   -0.00003
  143   -0.00009
  144    0.00129
  145   -0.00291
  146   -0.00005
  147   -0.00010
  148    0.00045
  149   -0.00017
  150   -0.00016
  151   -0.03211
  152   -0.00063
  153   -0.00040
  154   -0.05611
  155   -0.00001
  156   -0.00004
  157   -0.00002
  158   -0.00004
  159    0.00002
  160   -0.00262
  161   -0.00003
  162   -0.00006
  163    0.00022
  164   -0.00055
  165    0.00002
  166   -0.05754
  167   -0.00078
  168    0.00001
  169   -0.06523
  170   -0.00005
  171   -0.00001
  172    0.00000
  173    0.00002
  174   -0.00233
  175    0.00154
 Ene= 0.0
 Spin= Alpha
 Occup=    -0.0038
    1    0.00002
    2    0.00041
    3    0.00125
    4    0.00036
    5   -0.00031
    6    0.00381
    7   -0.00142
    8   -0.00010
    9   -0.05557
   10   -0.00012
   11    0.00012
   12    0.00007
   13   -0.00030
   14   -0.00897
   15   -0.02966
   16    0.00004
   17   -0.00005
   18   -0.00087
   19    0.00271
   20    0.00011
   21    0.21874
   22    0.00239
   23   -0.00004
   24    0.20532
   25   -0.00017
   26   -0.00004
   27    0.00021
   28   -0.00011
   29   -0.01200
   30   -0.01045
   31    0.00002
   32   -0.00040
   33   -0.00100
   34    0.00103
   35   -0.00027
   36    0.20786
   37    0.00185
   38    0.00010
   39    0.11656
   40   -0.00001
   41   -0.00017
   42    0.00018
   43    0.00020
   44   -0.00631
   45    0.01778
   46   -0.00002
   47    0.00020
   48    0.00100
   49    0.00333
   50   -0.00039
   51    0.20155
   52    0.00166
   53   -0.00027
   54    0.05728
   55    0.00017
   56   -0.00014
   57   -0.00003
   58    0.00023
   59    0.00518
   60    0.02142
   61    0.00000
   62   -0.00013
   63   -0.00030
   64    0.00312
   65   -0.00063
   66    0.31134
   67    0.00330
   68   -0.00099
   69    0.29753
   70    0.00037
   71   -0.00005
   72   -0.00031
   73   -0.00010
   74    0.01501
   75   -0.00289
   76    0.00003
   77   -0.00004
   78   -0.00092
   79    0.00155
   80    0.00005
   81    0.13189
   82   -0.00026
   83   -0.00012
   84    0.04250
   85   -0.00018
   86    0.00005
   87    0.00013
   88   -0.00023
   89   -0.00902
   90   -0.02148
   91   -0.00082
   92   -0.00008
   93    0.00012
   94   -0.00008
   95    0.00703
   96   -0.00036
   97   -0.00025
   98    0.00007
   99   -0.00003
  100    0.00587
  101    0.00043
  102    0.00039
  103    0.00016
  104   -0.00002
  105    0.01227
  106    0.00024
  107    0.00021
  108    0.00006
  109   -0.00002
  110    0.00334
  111   -0.00002
  112   -0.00010
  113   -0.00016
  114   -0.00161
  115   -0.00018
  116   -0.23315
  117   -0.00127
  118   -0.00005
  119   -0.17147
  120   -0.00004
  121   -0.00002
  122    0.00006
  123    0.00006
  124   -0.00164
  125    0.00697
  126    0.00066
  127   -0.00038
  128   -0.00034
  129    0.00007
  130   -0.00927
  131   -0.00001
  132    0.00007
  133    0.00042
  134   -0.00135
  135    0.00078
  136   -0.09212
  137   -0.00162
  138   -0.00085
  139   -0.10770
  140   -0.00013
  141   -0.00006
  142    0.00020
  143    0.00080
  144   -0.01138
  145    0.00368
  146    0.00004
  147    0.00026
  148    0.00029
  149    0.00495
  150   -0.00511
  151    0.00580
  152    0.00401
  153   -0.00381
  154    0.02511
  155   -0.00017
  156    0.00024
  157   -0.00004
  158    0.00005
  159    0.00193
  160    0.00310
  161   -0.00001
  162   -0.00012
  163   -0.00024
  164   -0.00568
  165   -0.00466
  166   -0.04341
  167   -0.00387
  168   -0.00337
  169   -0.01177
  170    0.00025
  171   -0.00027
  172    0.00001
  173   -0.00014
  174    0.00188
  175   -0.00538
 Ene= 0.0
 Spin= Alpha
 Occup=     0.0038
    1    0.00003
    2    0.00041
    3    0.00050
    4   -0.00174
    5    0.00014
    6   -0.17037
    7   -0.00321
    8    0.00022
    9   -0.24560
   10    0.00051
   11   -0.00001
   12   -0.00049
   13   -0.00035
   14    0.02333
   15   -0.02116
   16   -0.00002
   17    0.00007
   18    0.00121
   19    0.00334
   20   -0.00062
   21    0.27277
   22    0.00398
   23   -0.00136
   24    0.42580
   25   -0.00046
   26    0.00018
   27    0.00029
   28   -0.00034
   29   -0.01790
   30   -0.01514
   31   -0.00007
   32   -0.00002
   33    0.00086
   34    0.00061
   35   -0.00074
   36    0.04897
   37    0.00184
   38   -0.00246
   39    0.06081
   40    0.00057
   41   -0.00018
   42   -0.00055
   43    0.00024
   44    0.02942
   45    0.02382
   46   -0.00009
   47    0.00022
   48    0.00366
   49   -0.00260
   50    0.00008
   51   -0.21482
   52   -0.00564
   53   -0.00020
   54   -0.45766
   55   -0.00020
   56   -0.00011
   57    0.00022
   58    0.00019
   59   -0.00944
   60    0.01969
   61   -0.00008
   62    0.00016
   63    0.00243
   64    0.00284
   65   -0.00060
   66    0.27195
   67    0.00521
   68   -0.00093
   69    0.55423
   70   -0.00025
   71   -0.00002
   72    0.00018
   73    0.00011
   74   -0.00921
   75    0.00834
   76   -0.00003
   77   -0.00001
   78    0.00031
   79   -0.00166
   80    0.00036
   81   -0.12004
   82   -0.00306
   83    0.00106
   84   -0.23357
   85   -0.00058
   86    0.00003
   87    0.00048
   88   -0.00015
   89   -0.02783
   90   -0.01935
   91   -0.00020
   92   -0.00386
   93    0.00001
   94   -0.00002
   95    0.00205
   96   -0.00024
   97   -0.00367
   98   -0.00016
   99   -0.00000
  100   -0.01220
  101   -0.00015
  102   -0.00303
  103    0.00015
  104   -0.00004
  105    0.01461
  106   -0.00004
  107   -0.00122
  108   -0.00008
  109    0.00001
  110   -0.00639
  111   -0.00001
  112   -0.00013
  113   -0.00021
  114    0.00066
  115    0.00007
  116    0.06528
  117    0.00094
  118   -0.00017
  119    0.09276
  120    0.00011
  121    0.00000
  122   -0.00011
  123    0.00004
  124    0.00552
  125    0.00330
  126   -0.00014
  127    0.00102
  128    0.00021
  129   -0.00003
  130    0.01143
  131   -0.00000
  132   -0.00013
  133   -0.00042
  134   -0.00407
  135   -0.00121
  136   -0.35756
  137   -0.00521
  138   -0.00135
  139   -0.42347
  140   -0.00004
  141   -0.00005
  142    0.00010
  143    0.00004
  144   -0.00503
  145   -0.00510
  146    0.00000
  147    0.00009
  148    0.00027
  149    0.00132
  150    0.00038
  151    0.14772
  152    0.00215
  153    0.00041
  154    0.21568
  155    0.00009
  156    0.00007
  157   -0.00015
  158    0.00013
  159    0.00476
  160    0.00980