[Molden Format]
[Title]
Written by TeraChem
[Atoms] Angs
C   1   6      2.11486    1.18872    0.00109
C   2   6      2.76911   -0.05309   -0.00895
C   3   6      2.04304   -1.25050   -0.00300
C   4   6      0.66644   -1.22550    0.01291
C   5   6      0.00008   -0.00334    0.02325
C   6   6      0.71478    1.18509    0.01745
H   7   1      2.58029   -2.18421   -0.01105
H   8   1      0.11285   -2.15359    0.01756
H   9   1     -1.08084    0.02552    0.03582
H   10   1      0.21570    2.14290    0.02519
O   11   8      2.70716    2.39093   -0.00304
H   12   1      3.64980    2.28964   -0.01702
N   13   7      4.22168   -0.14829   -0.02560
O   14   8      4.86556    0.87173   -0.03660
O   15   8      4.71978   -1.23549   -0.02791
[GTO]
    1 0
 s    8 1.00
         6665.000000             0.000692
         1000.000000             0.005326
          228.000000             0.027061
           64.710000             0.101657
           21.060000             0.274575
            7.495000             0.448294
            2.797000             0.284903
            0.521500             0.015195
 s    8 1.00
         6665.000000            -0.000293
         1000.000000            -0.002318
          228.000000            -0.011500
           64.710000            -0.046827
           21.060000            -0.128466
            7.495000            -0.301266
            2.797000            -0.255631
            0.521500             1.093793
 s    1 1.00
            0.159600             1.000000
 p    3 1.00
            9.439000             0.056979
            2.002000             0.313207
            0.545600             0.760377
 p    1 1.00
            0.151700             1.000000
 d    1 1.00
            0.550000             1.000000

    2 0
 s    8 1.00
         6665.000000             0.000692
         1000.000000             0.005326
          228.000000             0.027061
           64.710000             0.101657
           21.060000             0.274575
            7.495000             0.448294
            2.797000             0.284903
            0.521500             0.015195
 s    8 1.00
         6665.000000            -0.000293
         1000.000000            -0.002318
          228.000000            -0.011500
           64.710000            -0.046827
           21.060000            -0.128466
            7.495000            -0.301266
            2.797000            -0.255631
            0.521500             1.093793
 s    1 1.00
            0.159600             1.000000
 p    3 1.00
            9.439000             0.056979
            2.002000             0.313207
            0.545600             0.760377
 p    1 1.00
            0.151700             1.000000
 d    1 1.00
            0.550000             1.000000

    3 0
 s    8 1.00
         6665.000000             0.000692
         1000.000000             0.005326
          228.000000             0.027061
           64.710000             0.101657
           21.060000             0.274575
            7.495000             0.448294
            2.797000             0.284903
            0.521500             0.015195
 s    8 1.00
         6665.000000            -0.000293
         1000.000000            -0.002318
          228.000000            -0.011500
           64.710000            -0.046827
           21.060000            -0.128466
            7.495000            -0.301266
            2.797000            -0.255631
            0.521500             1.093793
 s    1 1.00
            0.159600             1.000000
 p    3 1.00
            9.439000             0.056979
            2.002000             0.313207
            0.545600             0.760377
 p    1 1.00
            0.151700             1.000000
 d    1 1.00
            0.550000             1.000000

    4 0
 s    8 1.00
         6665.000000             0.000692
         1000.000000             0.005326
          228.000000             0.027061
           64.710000             0.101657
           21.060000             0.274575
            7.495000             0.448294
            2.797000             0.284903
            0.521500             0.015195
 s    8 1.00
         6665.000000            -0.000293
         1000.000000            -0.002318
          228.000000            -0.011500
           64.710000            -0.046827
           21.060000            -0.128466
            7.495000            -0.301266
            2.797000            -0.255631
            0.521500             1.093793
 s    1 1.00
            0.159600             1.000000
 p    3 1.00
            9.439000             0.056979
            2.002000             0.313207
            0.545600             0.760377
 p    1 1.00
            0.151700             1.000000
 d    1 1.00
            0.550000             1.000000

    5 0
 s    8 1.00
         6665.000000             0.000692
         1000.000000             0.005326
          228.000000             0.027061
           64.710000             0.101657
           21.060000             0.274575
            7.495000             0.448294
            2.797000             0.284903
            0.521500             0.015195
 s    8 1.00
         6665.000000            -0.000293
         1000.000000            -0.002318
          228.000000            -0.011500
           64.710000            -0.046827
           21.060000            -0.128466
            7.495000            -0.301266
            2.797000            -0.255631
            0.521500             1.093793
 s    1 1.00
            0.159600             1.000000
 p    3 1.00
            9.439000             0.056979
            2.002000             0.313207
            0.545600             0.760377
 p    1 1.00
            0.151700             1.000000
 d    1 1.00
            0.550000             1.000000

    6 0
 s    8 1.00
         6665.000000             0.000692
         1000.000000             0.005326
          228.000000             0.027061
           64.710000             0.101657
           21.060000             0.274575
            7.495000             0.448294
            2.797000             0.284903
            0.521500             0.015195
 s    8 1.00
         6665.000000            -0.000293
         1000.000000            -0.002318
          228.000000            -0.011500
           64.710000            -0.046827
           21.060000            -0.128466
            7.495000            -0.301266
            2.797000            -0.255631
            0.521500             1.093793
 s    1 1.00
            0.159600             1.000000
 p    3 1.00
            9.439000             0.056979
            2.002000             0.313207
            0.545600             0.760377
 p    1 1.00
            0.151700             1.000000
 d    1 1.00
            0.550000             1.000000

    7 0
 s    3 1.00
           13.010000             0.033499
            1.962000             0.234801
            0.444600             0.813683
 s    1 1.00
            0.122000             1.000000
 p    1 1.00
            0.727000             1.000000

    8 0
 s    3 1.00
           13.010000             0.033499
            1.962000             0.234801
            0.444600             0.813683
 s    1 1.00
            0.122000             1.000000
 p    1 1.00
            0.727000             1.000000

    9 0
 s    3 1.00
           13.010000             0.033499
            1.962000             0.234801
            0.444600             0.813683
 s    1 1.00
            0.122000             1.000000
 p    1 1.00
            0.727000             1.000000

   10 0
 s    3 1.00
           13.010000             0.033499
            1.962000             0.234801
            0.444600             0.813683
 s    1 1.00
            0.122000             1.000000
 p    1 1.00
            0.727000             1.000000

   11 0
 s    8 1.00
        11720.000000             0.000710
         1759.000000             0.005467
          400.800000             0.027823
          113.700000             0.104748
           37.030000             0.282921
           13.270000             0.448495
            5.025000             0.270817
            1.013000             0.015450
 s    8 1.00
        11720.000000            -0.000314
         1759.000000            -0.002482
          400.800000            -0.012316
          113.700000            -0.050539
           37.030000            -0.139385
           13.270000            -0.325077
            5.025000            -0.229848
            1.013000             1.095379
 s    1 1.00
            0.302300             1.000000
 p    3 1.00
           17.700000             0.062679
            3.854000             0.333537
            1.046000             0.741240
 p    1 1.00
            0.275300             1.000000
 d    1 1.00
            1.185000             1.000000

   12 0
 s    3 1.00
           13.010000             0.033499
            1.962000             0.234801
            0.444600             0.813683
 s    1 1.00
            0.122000             1.000000
 p    1 1.00
            0.727000             1.000000

   13 0
 s    8 1.00
         9046.000000             0.000700
         1357.000000             0.005386
          309.300000             0.027391
           87.730000             0.103151
           28.560000             0.278571
           10.210000             0.448295
            3.838000             0.278086
            0.746600             0.015432
 s    8 1.00
         9046.000000            -0.000305
         1357.000000            -0.002408
          309.300000            -0.011944
           87.730000            -0.048926
           28.560000            -0.134473
           10.210000            -0.315113
            3.838000            -0.242858
            0.746600             1.094382
 s    1 1.00
            0.224800             1.000000
 p    3 1.00
           13.550000             0.058906
            2.917000             0.320461
            0.797300             0.753042
 p    1 1.00
            0.218500             1.000000
 d    1 1.00
            0.817000             1.000000

   14 0
 s    8 1.00
        11720.000000             0.000710
         1759.000000             0.005467
          400.800000             0.027823
          113.700000             0.104748
           37.030000             0.282921
           13.270000             0.448495
            5.025000             0.270817
            1.013000             0.015450
 s    8 1.00
        11720.000000            -0.000314
         1759.000000            -0.002482
          400.800000            -0.012316
          113.700000            -0.050539
           37.030000            -0.139385
           13.270000            -0.325077
            5.025000            -0.229848
            1.013000             1.095379
 s    1 1.00
            0.302300             1.000000
 p    3 1.00
           17.700000             0.062679
            3.854000             0.333537
            1.046000             0.741240
 p    1 1.00
            0.275300             1.000000
 d    1 1.00
            1.185000             1.000000

   15 0
 s    8 1.00
        11720.000000             0.000710
         1759.000000             0.005467
          400.800000             0.027823
          113.700000             0.104748
           37.030000             0.282921
           13.270000             0.448495
            5.025000             0.270817
            1.013000             0.015450
 s    8 1.00
        11720.000000            -0.000314
         1759.000000            -0.002482
          400.800000            -0.012316
          113.700000            -0.050539
           37.030000            -0.139385
           13.270000            -0.325077
            5.025000            -0.229848
            1.013000             1.095379
 s    1 1.00
            0.302300             1.000000
 p    3 1.00
           17.700000             0.062679
            3.854000             0.333537
            1.046000             0.741240
 p    1 1.00
            0.275300             1.000000
 d    1 1.00
            1.185000             1.000000

[MO]
 Ene= 0.0
 Spin= Alpha
 Occup=    -0.7432
    1   -0.00000
    2    0.00003
    3    0.00016
    4   -0.00330
    5    0.00056
    6   -0.27762
    7   -0.00207
    8    0.00043
    9   -0.18622
   10    0.00040
   11   -0.00013
   12   -0.00026
   13    0.00028
   14    0.01764
   15    0.02562
   16    0.00000
   17   -0.00003
   18   -0.00012
   19   -0.00184
   20    0.00029
   21   -0.17040
   22   -0.00180
   23    0.00018
   24   -0.15847
   25    0.00003
   26    0.00008
   27   -0.00011
   28   -0.00035
   29    0.00068
   30   -0.02819
   31    0.00000
   32   -0.00001
   33   -0.00012
   34    0.00212
   35   -0.00037
   36    0.19612
   37    0.00200
   38   -0.00033
   39    0.17448
   40   -0.00047
   41    0.00001
   42    0.00046
   43   -0.00002
   44   -0.02439
   45   -0.00703
   46   -0.00000
   47    0.00000
   48    0.00005
   49    0.00353
   50   -0.00060
   51    0.29456
   52    0.00293
   53   -0.00048
   54    0.24495
   55    0.00026
   56   -0.00003
   57   -0.00024
   58    0.00003
   59    0.01267
   60    0.00466
   61   -0.00000
   62   -0.00002
   63   -0.00009
   64    0.00052
   65   -0.00014
   66    0.05167
   67    0.00035
   68   -0.00010
   69    0.03645
   70    0.00003
   71    0.00009
   72   -0.00012
   73   -0.00034
   74    0.00093
   75   -0.02861
   76   -0.00001
   77    0.00002
   78    0.00020
   79   -0.00262
   80    0.00054
   81   -0.23508
   82   -0.00219
   83    0.00039
   84   -0.19496
   85   -0.00043
   86   -0.00002
   87    0.00043
   88    0.00006
   89   -0.02117
   90    0.00143
   91   -0.00009
   92   -0.00004
   93    0.00009
   94   -0.00002
   95    0.00743
   96   -0.00002
   97   -0.00000
   98    0.00014
   99   -0.00002
  100    0.01145
  101    0.00007
  102    0.00004
  103    0.00003
  104   -0.00001
  105    0.00201
  106    0.00001
  107   -0.00005
  108   -0.00010
  109    0.00001
  110   -0.00816
  111   -0.00000
  112    0.00009
  113    0.00021
  114    0.00340
  115   -0.00067
  116    0.24797
  117    0.00319
  118   -0.00059
  119    0.23075
  120    0.00013
  121    0.00001
  122   -0.00015
  123   -0.00002
  124    0.00643
  125    0.00033
  126   -0.00025
  127   -0.00017
  128    0.00020
  129   -0.00004
  130    0.01363
  131   -0.00000
  132    0.00001
  133    0.00005
  134   -0.00016
  135   -0.00001
  136   -0.00741
  137   -0.00002
  138    0.00006
  139    0.00718
  140    0.00024
  141   -0.00001
  142   -0.00024
  143    0.00005
  144    0.01108
  145   -0.00025
  146   -0.00000
  147   -0.00002
  148   -0.00003
  149    0.00134
  150   -0.00023
  151    0.05871
  152    0.00115
  153   -0.00019
  154    0.05153
  155   -0.00004
  156    0.00001
  157    0.00004
  158   -0.00003
  159   -0.00101
  160   -0.00154
  161   -0.00001
  162   -0.00001
  163    0.00008
  164   -0.00012
  165   -0.00018
  166    0.03276
  167   -0.00007
  168   -0.00011
  169    0.02744
  170    0.00001
  171   -0.00002
  172   -0.00000
  173    0.00000
  174   -0.00049
  175    0.00107
 Ene= 0.0
 Spin= Alpha
 Occup=     0.7432
    1    0.00000
    2    0.00014
    3    0.00085
    4    0.00195
    5   -0.00047
    6    0.15157
    7    0.00205
    8   -0.00118
    9    0.17688
   10   -0.00050
   11   -0.00004
   12    0.00057
   13    0.00010
   14   -0.02591
   15    0.00839
   16   -0.00001
   17    0.00006
   18    0.00073
   19   -0.00223
   20    0.00053
   21   -0.20348
   22   -0.00367
   23   -0.00074
   24   -0.31761
   25   -0.00080
   26    0.00007
   27    0.00077
   28   -0.00011
   29   -0.04010
   30   -0.00513
   31    0.00000
   32   -0.00009
   33   -0.00086
   34    0.00241
   35   -0.00074
   36    0.22093
   37    0.00361
   38   -0.00188
   39    0.35322
   40   -0.00025
   41   -0.00000
   42    0.00018
   43   -0.00011
   44   -0.01097
   45   -0.00956
   46    0.00000
   47    0.00006
   48    0.00018
   49    0.00025
   50   -0.00003
   51    0.01418
   52    0.00023
   53    0.00022
   54    0.02906
   55    0.00057
   56    0.00006
   57   -0.00061
   58   -0.00026
   59    0.02757
   60   -0.01595
   61   -0.00001
   62    0.00003
   63    0.00038
   64   -0.00292
   65    0.00054
   66   -0.25294
   67   -0.00450
   68    0.00114
   69   -0.39272
   70    0.00012
   71   -0.00003
   72   -0.00009
   73    0.00009
   74    0.00621
   75    0.00936
   76    0.00001
   77   -0.00003
   78   -0.00052
   79    0.00173
   80   -0.00033
   81    0.16019
   82    0.00297
   83   -0.00002
   84    0.26047
   85    0.00046
   86   -0.00005
   87   -0.00043
   88    0.00010
   89    0.02386
   90    0.01316
   91   -0.00003
   92   -0.00071
   93    0.00011
   94   -0.00003
   95    0.01053
   96   -0.00006
   97   -0.00012
   98    0.00001
   99   -0.00001
  100    0.00085
  101   -0.00002
  102   -0.00018
  103   -0.00015
  104    0.00002
  105   -0.01232
  106   -0.00000
  107   -0.00021
  108    0.00009
  109   -0.00002
  110    0.00742
  111   -0.00001
  112   -0.00011
  113   -0.00013
  114   -0.00124
  115    0.00026
  116   -0.07861
  117   -0.00155
  118    0.00017
  119   -0.09235
  120   -0.00009
  121    0.00001
  122    0.00009
  123    0.00000
  124   -0.00469
  125   -0.00191
  126    0.00024
  127    0.00065
  128   -0.00004
  129    0.00001
  130   -0.00426
  131    0.00003
  132    0.00002
  133   -0.00038
  134   -0.00325
  135   -0.00092
  136   -0.28173
  137   -0.00301
  138   -0.00039
  139   -0.26827
  140    0.00062
  141   -0.00001
  142   -0.00057
  143   -0.00002
  144    0.02909
  145   -0.00332
  146   -0.00000
  147   -0.00012
  148   -0.00041
  149    0.00294
  150    0.00070
  151    0.22859
  152    0.00318
  153    0.00081
  154    0.24928
  155    0.00005
  156    0.00002
  157   -0.00006
  158    0.00003
  159    0.00247
  160    0.00241
  161   -0.00001
  162    0.00003
  163    0.00042
  164    0.00246
  165    0.00082
  166    0.22244
  167    0.00271
  168    0.00098
  169    0.25127
  170    0.00003
  171   -0.00002
  172   -0.00004
  173   -0.00002
  174    0.00185
  175   -0.00247
 Ene= 0.0
 Spin= Alpha
 Occup=    -0.1098
    1    0.00001
    2   -0.00000
    3   -0.00045
    4    0.00032
    5   -0.00002
    6    0.03003
    7   -0.00001
    8    0.00021
    9    0.01166
   10    0.00053
   11    0.00007
   12   -0.00060
   13   -0.00029
   14    0.02642
   15   -0.02146
   16    0.00001
   17    0.00004
   18    0.00010
   19    0.00397
   20   -0.00073
   21    0.34203
   22    0.00309
   23   -0.00003
   24    0.27728
   25   -0.00006
   26    0.00004
   27    0.00003
   28   -0.00008
   29   -0.00324
   30   -0.00936
   31    0.00000
   32    0.00003
   33    0.00027
   34    0.00257
   35   -0.00043
   36    0.22136
   37    0.00201
   38   -0.00026
   39    0.16065
   40    0.00029
   41   -0.00006
   42   -0.00021
   43    0.00021
   44    0.01381
   45    0.01970
   46   -0.00000
   47   -0.00000
   48    0.00003
   49   -0.00074
   50    0.00012
   51   -0.06339
   52   -0.00060
   53    0.00004
   54   -0.05582
   55    0.00042
   56    0.00006
   57   -0.00048
   58   -0.00022
   59    0.02134
   60   -0.01564
   61    0.00000
   62   -0.00000
   63   -0.00006
   64   -0.00321
   65    0.00060
   66   -0.27564
   67   -0.00241
   68    0.00037
   69   -0.20601
   70   -0.00026
   71    0.00004
   72    0.00022
   73   -0.00009
   74   -0.01292
   75   -0.01018
   76    0.00000
   77   -0.00001
   78    0.00001
   79   -0.00297
   80    0.00052
   81   -0.25604
   82   -0.00244
   83    0.00030
   84   -0.20675
   85    0.00017
   86   -0.00006
   87   -0.00011
   88    0.00018
   89    0.00827
   90    0.01685
   91    0.00000
   92   -0.00008
   93    0.00009
   94   -0.00002
   95    0.00817
   96   -0.00000
   97   -0.00002
   98   -0.00003
   99    0.00001
  100   -0.00273
  101    0.00001
  102    0.00001
  103   -0.00012
  104    0.00002
  105   -0.01014
  106   -0.00000
  107    0.00006
  108   -0.00012
  109    0.00002
  110   -0.00990
  111    0.00000
  112   -0.00002
  113   -0.00006
  114   -0.00044
  115    0.00007
  116   -0.03508
  117   -0.00036
  118    0.00004
  119   -0.02874
  120    0.00000
  121    0.00000
  122    0.00001
  123   -0.00000
  124   -0.00007
  125   -0.00015
  126    0.00003
  127    0.00005
  128   -0.00002
  129    0.00000
  130   -0.00119
  131   -0.00000
  132   -0.00000
  133    0.00008
  134   -0.00020
  135    0.00006
  136   -0.01353
  137   -0.00037
  138   -0.00025
  139   -0.02649
  140   -0.00043
  141   -0.00000
  142    0.00043
  143    0.00004
  144   -0.02294
  145    0.00507
  146   -0.00000
  147    0.00003
  148    0.00017
  149   -0.00121
  150   -0.00012
  151   -0.07017
  152   -0.00099
  153   -0.00011
  154   -0.05543
  155    0.00003
  156    0.00001
  157   -0.00005
  158    0.00005
  159    0.00129
  160    0.00298
  161    0.00000
  162   -0.00006
  163   -0.00021
  164   -0.00074
  165   -0.00026
  166   -0.12278
  167   -0.00055
  168   -0.00022
  169   -0.09733
  170    0.00002
  171   -0.00002
  172    0.00000
  173   -0.00003
  174    0.00147
  175   -0.00540
 Ene= 0.0
 Spin= Alpha
 Occup=     0.1098
    1   -0.00001
    2   -0.00005
    3    0.00057
    4    0.00414
    5   -0.00076
    6    0.35632
    7    0.00602
    8   -0.00198
    9    0.52285
   10    0.00021
   11    0.00007
   12   -0.00029
   13   -0.00012
   14    0.01198
   15   -0.00565
   16    0.00001
   17   -0.00000
   18   -0.00121
   19   -0.00087
   20    0.00024
   21   -0.05690
   22   -0.00038
   23   -0.00021
   24   -0.08269
   25   -0.00013
   26   -0.00022
   27    0.00029
   28    0.00059
   29   -0.00547
   30    0.04900
   31    0.00000
   32   -0.00004
   33   -0.00024
   34   -0.00290
   35    0.00058
   36   -0.24604
   37   -0.00543
   38    0.00169
   39   -0.45591
   40   -0.00061
   41    0.00006
   42    0.00056
   43   -0.00003
   44   -0.02908
   45   -0.00734
   46    0.00001
   47   -0.00003
   48   -0.00026
   49    0.00354
   50   -0.00061
   51    0.30566
   52    0.00682
   53   -0.00134
   54    0.58542
   55   -0.00027
   56    0.00002
   57    0.00026
   58   -0.00001
   59   -0.01396
   60   -0.00391
   61   -0.00001
   62    0.00002
   63    0.00066
   64   -0.00117
   65    0.00023
   66   -0.10027
   67   -0.00218
   68    0.00054
   69   -0.18857
   70    0.00007
   71    0.00014
   72   -0.00020
   73   -0.00043
   74    0.00300
   75   -0.03690
   76    0.00001
   77   -0.00001
   78   -0.00037
   79   -0.00231
   80    0.00041
   81   -0.19344
   82   -0.00405
   83    0.00125
   84   -0.34816
   85    0.00066
   86   -0.00002
   87   -0.00064
   88   -0.00000
   89    0.03276
   90    0.00555
   91    0.00001
   92    0.00096
   93   -0.00015
   94    0.00003
   95   -0.01217
   96    0.00005
   97    0.00008
   98    0.00018
   99   -0.00003
  100    0.01595
  101   -0.00001
  102   -0.00025
  103   -0.00007
  104    0.00001
  105   -0.00551
  106    0.00000
  107   -0.00024
  108   -0.00012
  109    0.00002
  110   -0.01034
  111   -0.00001
  112   -0.00007
  113   -0.00003
  114   -0.00199
  115    0.00030
  116   -0.15056
  117   -0.00282
  118    0.00038
  119   -0.20768
  120   -0.00013
  121    0.00002
  122    0.00011
  123   -0.00008
  124   -0.00683
  125   -0.00813
  126    0.00030
  127    0.00039
  128   -0.00011
  129    0.00006
  130   -0.00791
  131   -0.00004
  132   -0.00003
  133    0.00061
  134    0.00022
  135    0.00007
  136    0.01367
  137    0.00045
  138    0.00029
  139    0.01613
  140    0.00004
  141   -0.00000
  142   -0.00009
  143    0.00002
  144    0.00568
  145    0.00133
  146    0.00004
  147    0.00003
  148   -0.00059
  149   -0.00016
  150    0.00004
  151   -0.01271
  152    0.00002
  153    0.00026
  154   -0.01051
  155   -0.00000
  156    0.00002
  157    0.00005
  158   -0.00001
  159   -0.00085
  160   -0.00047
  161    0.00004
  162    0.00011
  163   -0.00020
  164    0.00008
  165   -0.00005
  166    0.03294
  167    0.00004
  168   -0.00014
  169    0.01582
  170    0.00003
  171    0.00003
  172    0.00000
  173    0.00002
  174    0.00121
  175    0.00218
 Ene= 0.0
 Spin= Alpha
 Occup=    -0.0085
    1    0.00001
    2    0.00004
    3   -0.00062
    4   -0.00421
    5    0.00079
    6   -0.35887
    7   -0.00601
    8    0.00202
    9   -0.52286
   10   -0.00021
   11   -0.00008
   12    0.00030
   13    0.00016
   14   -0.01222
   15    0.00864
   16   -0.00001
   17   -0.00001
   18    0.00101
   19    0.00062
   20   -0.00021
   21    0.03503
   22    0.00015
   23    0.00038
   24    0.05952
   25    0.00021
   26    0.00020
   27   -0.00036
   28   -0.00057
   29    0.00916
   30   -0.04778
   31    0.00000
   32    0.00004
   33    0.00027
   34    0.00254
   35   -0.00045
   36    0.21959
   37    0.00524
   38   -0.00142
   39    0.43640
   40    0.00062
   41   -0.00005
   42   -0.00057
   43    0.00001
   44    0.02947
   45    0.00522
   46   -0.00001
   47    0.00003
   48    0.00023
   49   -0.00371
   50    0.00063
   51   -0.32329
   52   -0.00677
   53    0.00131
   54   -0.58538
   55    0.00025
   56   -0.00001
   57   -0.00025
   58   -0.00000
   59    0.01297
   60    0.00192
   61    0.00001
   62   -0.00003
   63   -0.00068
   64    0.00083
   65   -0.00017
   66    0.07471
   67    0.00180
   68   -0.00050
   69    0.15677
   70   -0.00008
   71   -0.00015
   72    0.00022
   73    0.00045
   74   -0.00396
   75    0.03783
   76   -0.00001
   77    0.00002
   78    0.00046
   79    0.00235
   80   -0.00040
   81    0.19342
   82    0.00420
   83   -0.00127
   84    0.36017
   85   -0.00065
   86    0.00000
   87    0.00064
   88    0.00003
   89   -0.03211
   90   -0.00361
   91   -0.00005
   92   -0.00078
   93    0.00014
   94   -0.00003
   95    0.01120
   96   -0.00005
   97   -0.00002
   98   -0.00019
   99    0.00003
  100   -0.01640
  101    0.00004
  102    0.00029
  103    0.00006
  104   -0.00001
  105    0.00443
  106   -0.00002
  107    0.00019
  108    0.00012
  109   -0.00002
  110    0.01060
  111    0.00001
  112    0.00008
  113    0.00005
  114    0.00231
  115   -0.00039
  116    0.16818
  117    0.00308
  118   -0.00043
  119    0.22139
  120    0.00013
  121   -0.00002
  122   -0.00012
  123    0.00007
  124    0.00693
  125    0.00771
  126   -0.00029
  127   -0.00049
  128    0.00011
  129   -0.00006
  130    0.00829
  131    0.00004
  132    0.00003
  133   -0.00054
  134    0.00020
  135    0.00008
  136    0.02361
  137    0.00001
  138   -0.00020
  139    0.02521
  140   -0.00005
  141    0.00001
  142    0.00008
  143    0.00002
  144   -0.00574
  145    0.00062
  146   -0.00004
  147   -0.00003
  148    0.00061
  149    0.00032
  150   -0.00023
  151    0.00873
  152   -0.00000
  153   -0.00043
  154   -0.00207
  155   -0.00002
  156   -0.00002
  157   -0.00003
  158   -0.00001
  159   -0.00002
  160   -0.00079
  161   -0.00004
  162   -0.00011
  163    0.00017
  164   -0.00067
  165   -0.00022
  166   -0.06270
  167   -0.00060
  168   -0.00010
  169   -0.04955
  170   -0.00002
  171   -0.00004
  172   -0.00000
  173   -0.00002
  174   -0.00129
  175   -0.00176
 Ene= 0.0
 Spin= Alpha
 Occup=     0.0085
    1   -0.00001
    2    0.00002
    3    0.00050
    4   -0.00069
    5    0.00006
    6   -0.06181
    7   -0.00019
    8   -0.00019
    9   -0.03212
   10   -0.00041
   11   -0.00008
   12    0.00049
   13    0.00030
   14   -0.02053
   15    0.02308
   16   -0.00001
   17   -0.00005
   18   -0.00013
   19   -0.00398
   20    0.00070
   21   -0.34177
   22   -0.00293
   23   -0.00013
   24   -0.25489
   25    0.00004
   26   -0.00003
   27   -0.00003
   28    0.00005
   29    0.00260
   30    0.00854
   31   -0.00001
   32   -0.00005
   33   -0.00038
   34   -0.00269
   35    0.00044
   36   -0.23147
   37   -0.00214
   38    0.00016
   39   -0.17602
   40   -0.00027
   41    0.00006
   42    0.00019
   43   -0.00020
   44   -0.01303
   45   -0.01910
   46    0.00000
   47    0.00000
   48    0.00002
   49    0.00070
   50   -0.00012
   51    0.05884
   52    0.00049
   53    0.00003
   54    0.04217
   55   -0.00045
   56   -0.00006
   57    0.00052
   58    0.00024
   59   -0.02296
   60    0.01682
   61    0.00000
   62    0.00000
   63   -0.00006
   64    0.00336
   65   -0.00062
   66    0.28836
   67    0.00295
   68   -0.00045
   69    0.25075
   70    0.00022
   71   -0.00003
   72   -0.00019
   73    0.00006
   74    0.01075
   75    0.00736
   76    0.00000
   77   -0.00000
   78   -0.00009
   79    0.00234
   80   -0.00043
   81    0.20122
   82    0.00169
   83   -0.00023
   84    0.13996
   85   -0.00024
   86    0.00006
   87    0.00017
   88   -0.00018
   89   -0.01172
   90   -0.01736
   91   -0.00003
   92   -0.00004
   93   -0.00010
   94    0.00002
   95   -0.00864
   96    0.00001
   97    0.00008
   98    0.00003
   99   -0.00000
  100    0.00239
  101   -0.00001
  102    0.00010
  103    0.00013
  104   -0.00003
  105    0.01107
  106    0.00000
  107    0.00010
  108    0.00009
  109   -0.00002
  110    0.00767
  111   -0.00000
  112    0.00002
  113    0.00008
  114    0.00092
  115   -0.00015
  116    0.07593
  117    0.00079
  118   -0.00013
  119    0.06458
  120    0.00002
  121    0.00000
  122   -0.00003
  123   -0.00001
  124    0.00120
  125   -0.00027
  126   -0.00009
  127    0.00003
  128    0.00008
  129   -0.00001
  130    0.00437
  131   -0.00000
  132   -0.00000
  133   -0.00002
  134   -0.00018
  135   -0.00019
  136   -0.01786
  137   -0.00010
  138    0.00016
  139   -0.01029
  140    0.00045
  141    0.00002
  142   -0.00048
  143    0.00000
  144    0.02425
  145   -0.00201
  146    0.00000
  147   -0.00003
  148   -0.00018
  149    0.00168
  150    0.00032
  151    0.11634
  152    0.00149
  153    0.00029
  154    0.10204
  155   -0.00004
  156   -0.00001
  157    0.00007
  158   -0.00005
  159   -0.00184
  160   -0.00311