[Molden Format]
[Title]
Written by TeraChem
[Atoms] Angs
C   1   6      2.11486    1.18872    0.00109
C   2   6      2.76911   -0.05309   -0.00895
C   3   6      2.04304   -1.25050   -0.00300
C   4   6      0.66644   -1.22550    0.01291
C   5   6      0.00008   -0.00334    0.02325
C   6   6      0.71478    1.18509    0.01745
H   7   1      2.58029   -2.18421   -0.01105
H   8   1      0.11285   -2.15359    0.01756
H   9   1     -1.08084    0.02552    0.03582
H   10   1      0.21570    2.14290    0.02519
O   11   8      2.70716    2.39093   -0.00304
H   12   1      3.64980    2.28964   -0.01702
N   13   7      4.22168   -0.14829   -0.02560
O   14   8      4.86556    0.87173   -0.03660
O   15   8      4.71978   -1.23549   -0.02791
[GTO]
    1 0
 s    8 1.00
         6665.000000             0.000692
         1000.000000             0.005326
          228.000000             0.027061
           64.710000             0.101657
           21.060000             0.274575
            7.495000             0.448294
            2.797000             0.284903
            0.521500             0.015195
 s    8 1.00
         6665.000000            -0.000293
         1000.000000            -0.002318
          228.000000            -0.011500
           64.710000            -0.046827
           21.060000            -0.128466
            7.495000            -0.301266
            2.797000            -0.255631
            0.521500             1.093793
 s    1 1.00
            0.159600             1.000000
 p    3 1.00
            9.439000             0.056979
            2.002000             0.313207
            0.545600             0.760377
 p    1 1.00
            0.151700             1.000000
 d    1 1.00
            0.550000             1.000000

    2 0
 s    8 1.00
         6665.000000             0.000692
         1000.000000             0.005326
          228.000000             0.027061
           64.710000             0.101657
           21.060000             0.274575
            7.495000             0.448294
            2.797000             0.284903
            0.521500             0.015195
 s    8 1.00
         6665.000000            -0.000293
         1000.000000            -0.002318
          228.000000            -0.011500
           64.710000            -0.046827
           21.060000            -0.128466
            7.495000            -0.301266
            2.797000            -0.255631
            0.521500             1.093793
 s    1 1.00
            0.159600             1.000000
 p    3 1.00
            9.439000             0.056979
            2.002000             0.313207
            0.545600             0.760377
 p    1 1.00
            0.151700             1.000000
 d    1 1.00
            0.550000             1.000000

    3 0
 s    8 1.00
         6665.000000             0.000692
         1000.000000             0.005326
          228.000000             0.027061
           64.710000             0.101657
           21.060000             0.274575
            7.495000             0.448294
            2.797000             0.284903
            0.521500             0.015195
 s    8 1.00
         6665.000000            -0.000293
         1000.000000            -0.002318
          228.000000            -0.011500
           64.710000            -0.046827
           21.060000            -0.128466
            7.495000            -0.301266
            2.797000            -0.255631
            0.521500             1.093793
 s    1 1.00
            0.159600             1.000000
 p    3 1.00
            9.439000             0.056979
            2.002000             0.313207
            0.545600             0.760377
 p    1 1.00
            0.151700             1.000000
 d    1 1.00
            0.550000             1.000000

    4 0
 s    8 1.00
         6665.000000             0.000692
         1000.000000             0.005326
          228.000000             0.027061
           64.710000             0.101657
           21.060000             0.274575
            7.495000             0.448294
            2.797000             0.284903
            0.521500             0.015195
 s    8 1.00
         6665.000000            -0.000293
         1000.000000            -0.002318
          228.000000            -0.011500
           64.710000            -0.046827
           21.060000            -0.128466
            7.495000            -0.301266
            2.797000            -0.255631
            0.521500             1.093793
 s    1 1.00
            0.159600             1.000000
 p    3 1.00
            9.439000             0.056979
            2.002000             0.313207
            0.545600             0.760377
 p    1 1.00
            0.151700             1.000000
 d    1 1.00
            0.550000             1.000000

    5 0
 s    8 1.00
         6665.000000             0.000692
         1000.000000             0.005326
          228.000000             0.027061
           64.710000             0.101657
           21.060000             0.274575
            7.495000             0.448294
            2.797000             0.284903
            0.521500             0.015195
 s    8 1.00
         6665.000000            -0.000293
         1000.000000            -0.002318
          228.000000            -0.011500
           64.710000            -0.046827
           21.060000            -0.128466
            7.495000            -0.301266
            2.797000            -0.255631
            0.521500             1.093793
 s    1 1.00
            0.159600             1.000000
 p    3 1.00
            9.439000             0.056979
            2.002000             0.313207
            0.545600             0.760377
 p    1 1.00
            0.151700             1.000000
 d    1 1.00
            0.550000             1.000000

    6 0
 s    8 1.00
         6665.000000             0.000692
         1000.000000             0.005326
          228.000000             0.027061
           64.710000             0.101657
           21.060000             0.274575
            7.495000             0.448294
            2.797000             0.284903
            0.521500             0.015195
 s    8 1.00
         6665.000000            -0.000293
         1000.000000            -0.002318
          228.000000            -0.011500
           64.710000            -0.046827
           21.060000            -0.128466
            7.495000            -0.301266
            2.797000            -0.255631
            0.521500             1.093793
 s    1 1.00
            0.159600             1.000000
 p    3 1.00
            9.439000             0.056979
            2.002000             0.313207
            0.545600             0.760377
 p    1 1.00
            0.151700             1.000000
 d    1 1.00
            0.550000             1.000000

    7 0
 s    3 1.00
           13.010000             0.033499
            1.962000             0.234801
            0.444600             0.813683
 s    1 1.00
            0.122000             1.000000
 p    1 1.00
            0.727000             1.000000

    8 0
 s    3 1.00
           13.010000             0.033499
            1.962000             0.234801
            0.444600             0.813683
 s    1 1.00
            0.122000             1.000000
 p    1 1.00
            0.727000             1.000000

    9 0
 s    3 1.00
           13.010000             0.033499
            1.962000             0.234801
            0.444600             0.813683
 s    1 1.00
            0.122000             1.000000
 p    1 1.00
            0.727000             1.000000

   10 0
 s    3 1.00
           13.010000             0.033499
            1.962000             0.234801
            0.444600             0.813683
 s    1 1.00
            0.122000             1.000000
 p    1 1.00
            0.727000             1.000000

   11 0
 s    8 1.00
        11720.000000             0.000710
         1759.000000             0.005467
          400.800000             0.027823
          113.700000             0.104748
           37.030000             0.282921
           13.270000             0.448495
            5.025000             0.270817
            1.013000             0.015450
 s    8 1.00
        11720.000000            -0.000314
         1759.000000            -0.002482
          400.800000            -0.012316
          113.700000            -0.050539
           37.030000            -0.139385
           13.270000            -0.325077
            5.025000            -0.229848
            1.013000             1.095379
 s    1 1.00
            0.302300             1.000000
 p    3 1.00
           17.700000             0.062679
            3.854000             0.333537
            1.046000             0.741240
 p    1 1.00
            0.275300             1.000000
 d    1 1.00
            1.185000             1.000000

   12 0
 s    3 1.00
           13.010000             0.033499
            1.962000             0.234801
            0.444600             0.813683
 s    1 1.00
            0.122000             1.000000
 p    1 1.00
            0.727000             1.000000

   13 0
 s    8 1.00
         9046.000000             0.000700
         1357.000000             0.005386
          309.300000             0.027391
           87.730000             0.103151
           28.560000             0.278571
           10.210000             0.448295
            3.838000             0.278086
            0.746600             0.015432
 s    8 1.00
         9046.000000            -0.000305
         1357.000000            -0.002408
          309.300000            -0.011944
           87.730000            -0.048926
           28.560000            -0.134473
           10.210000            -0.315113
            3.838000            -0.242858
            0.746600             1.094382
 s    1 1.00
            0.224800             1.000000
 p    3 1.00
           13.550000             0.058906
            2.917000             0.320461
            0.797300             0.753042
 p    1 1.00
            0.218500             1.000000
 d    1 1.00
            0.817000             1.000000

   14 0
 s    8 1.00
        11720.000000             0.000710
         1759.000000             0.005467
          400.800000             0.027823
          113.700000             0.104748
           37.030000             0.282921
           13.270000             0.448495
            5.025000             0.270817
            1.013000             0.015450
 s    8 1.00
        11720.000000            -0.000314
         1759.000000            -0.002482
          400.800000            -0.012316
          113.700000            -0.050539
           37.030000            -0.139385
           13.270000            -0.325077
            5.025000            -0.229848
            1.013000             1.095379
 s    1 1.00
            0.302300             1.000000
 p    3 1.00
           17.700000             0.062679
            3.854000             0.333537
            1.046000             0.741240
 p    1 1.00
            0.275300             1.000000
 d    1 1.00
            1.185000             1.000000

   15 0
 s    8 1.00
        11720.000000             0.000710
         1759.000000             0.005467
          400.800000             0.027823
          113.700000             0.104748
           37.030000             0.282921
           13.270000             0.448495
            5.025000             0.270817
            1.013000             0.015450
 s    8 1.00
        11720.000000            -0.000314
         1759.000000            -0.002482
          400.800000            -0.012316
          113.700000            -0.050539
           37.030000            -0.139385
           13.270000            -0.325077
            5.025000            -0.229848
            1.013000             1.095379
 s    1 1.00
            0.302300             1.000000
 p    3 1.00
           17.700000             0.062679
            3.854000             0.333537
            1.046000             0.741240
 p    1 1.00
            0.275300             1.000000
 d    1 1.00
            1.185000             1.000000

[MO]
 Ene= 0.0
 Spin= Alpha
 Occup=    -0.8709
    1    0.00016
    2    0.01099
    3    0.08591
    4   -0.09207
    5    0.06023
    6    0.00118
    7   -0.11570
    8   -0.01904
    9    0.00137
   10    0.01683
   11   -0.02146
   12    0.00056
   13    0.00453
   14   -0.00024
   15   -0.00010
   16    0.00444
   17    0.03467
   18    0.05085
   19    0.22336
   20   -0.02215
   21   -0.00301
   22    0.17668
   23   -0.02627
   24   -0.00233
   25    0.03091
   26   -0.01532
   27   -0.00043
   28   -0.00150
   29   -0.00040
   30    0.00005
   31    0.00096
   32   -0.00444
   33    0.00287
   34   -0.09739
   35   -0.03776
   36    0.00064
   37   -0.07037
   38   -0.00480
   39    0.00041
   40    0.00946
   41   -0.01559
   42    0.00120
   43    0.00143
   44   -0.00013
   45   -0.00008
   46    0.00053
   47    0.01109
   48   -0.02378
   49    0.09546
   50    0.01186
   51   -0.00104
   52    0.03964
   53    0.00527
   54   -0.00038
   55    0.00773
   56   -0.00651
   57   -0.00032
   58   -0.00420
   59   -0.00015
   60    0.00006
   61   -0.00084
   62   -0.00028
   63    0.00454
   64   -0.05558
   65   -0.00855
   66    0.00104
   67   -0.01254
   68   -0.01812
   69    0.00044
   70    0.01067
   71   -0.01079
   72    0.00034
   73   -0.00111
   74   -0.00012
   75    0.00001
   76    0.00163
   77    0.01784
   78   -0.04685
   79    0.10609
   80   -0.00003
   81   -0.00084
   82   -0.00489
   83    0.00240
   84    0.00033
   85    0.00729
   86   -0.00701
   87    0.00115
   88    0.00571
   89   -0.00008
   90   -0.00011
   91   -0.02692
   92   -0.00796
   93   -0.00385
   94   -0.00201
   95    0.00003
   96   -0.05295
   97   -0.02594
   98    0.00059
   99   -0.00358
  100   -0.00001
  101    0.06077
  102    0.03745
  103    0.00232
  104   -0.00003
  105   -0.00001
  106   -0.04313
  107   -0.03969
  108    0.00157
  109    0.00237
  110    0.00000
  111   -0.00144
  112   -0.01724
  113   -0.01872
  114    0.13741
  115   -0.07603
  116   -0.00206
  117    0.08930
  118   -0.06203
  119   -0.00134
  120    0.00383
  121    0.00016
  122   -0.00243
  123   -0.00096
  124   -0.00010
  125    0.00003
  126    0.06871
  127   -0.00554
  128   -0.01343
  129    0.00230
  130    0.00022
  131   -0.00280
  132    0.01379
  133    0.06794
  134   -0.17773
  135    0.03911
  136    0.00187
  137   -0.02826
  138    0.00453
  139    0.00031
  140    0.04632
  141   -0.05106
  142    0.00506
  143    0.01105
  144   -0.00057
  145    0.00008
  146    0.00291
  147    0.00899
  148   -0.01836
  149    0.46676
  150   -0.19179
  151   -0.00473
  152    0.36731
  153   -0.14656
  154   -0.00373
  155   -0.01113
  156    0.00832
  157    0.00413
  158   -0.00706
  159    0.00024
  160    0.00006
  161   -0.00009
  162    0.00106
  163   -0.00277
  164    0.20946
  165   -0.09428
  166   -0.00210
  167    0.16560
  168   -0.06651
  169   -0.00168
  170    0.00126
  171   -0.00608
  172    0.00281
  173    0.00649
  174   -0.00000
  175   -0.00004
 Ene= 0.0
 Spin= Alpha
 Occup=     0.8709
    1    0.00002
    2    0.00029
    3    0.00136
    4    0.00208
    5   -0.00066
    6    0.15261
    7    0.00202
    8   -0.00148
    9    0.18812
   10   -0.00008
   11    0.00002
   12    0.00012
   13   -0.00011
   14   -0.00534
   15   -0.00611
   16   -0.00001
   17    0.00003
   18    0.00101
   19   -0.00052
   20    0.00023
   21   -0.05105
   22   -0.00102
   23   -0.00187
   24   -0.06241
   25   -0.00099
   26    0.00006
   27    0.00097
   28   -0.00009
   29   -0.04904
   30    0.00394
   31   -0.00001
   32   -0.00018
   33   -0.00131
   34    0.00127
   35   -0.00075
   36    0.12738
   37    0.00183
   38   -0.00243
   39    0.18828
   40   -0.00008
   41   -0.00006
   42    0.00002
   43   -0.00000
   44   -0.00125
   45    0.00254
   46    0.00000
   47    0.00009
   48    0.00051
   49   -0.00020
   50    0.00005
   51   -0.02950
   52   -0.00075
   53    0.00056
   54   -0.06748
   55    0.00028
   56    0.00001
   57   -0.00028
   58   -0.00011
   59    0.01308
   60   -0.00367
   61    0.00000
   62    0.00004
   63    0.00006
   64   -0.00103
   65    0.00019
   66   -0.09448
   67   -0.00067
   68    0.00050
   69   -0.07364
   70    0.00001
   71    0.00001
   72   -0.00000
   73    0.00002
   74    0.00062
   75    0.00208
   76    0.00002
   77   -0.00012
   78   -0.00134
   79   -0.00010
   80   -0.00009
   81    0.00951
   82   -0.00044
   83    0.00031
   84   -0.02368
   85    0.00029
   86   -0.00000
   87   -0.00029
   88   -0.00004
   89    0.01542
   90    0.00180
   91   -0.00008
   92   -0.00153
   93    0.00005
   94   -0.00003
   95    0.00595
   96   -0.00011
   97   -0.00014
   98   -0.00002
   99   -0.00000
  100   -0.00187
  101   -0.00003
  102    0.00012
  103   -0.00004
  104   -0.00000
  105   -0.00394
  106    0.00006
  107    0.00051
  108   -0.00001
  109   -0.00001
  110   -0.00053
  111   -0.00001
  112   -0.00015
  113   -0.00022
  114   -0.00133
  115    0.00026
  116   -0.07474
  117   -0.00169
  118    0.00011
  119   -0.09154
  120   -0.00006
  121    0.00002
  122    0.00005
  123   -0.00001
  124   -0.00307
  125   -0.00268
  126    0.00021
  127    0.00115
  128    0.00007
  129   -0.00000
  130    0.00119
  131    0.00002
  132    0.00002
  133   -0.00025
  134   -0.00554
  135   -0.00157
  136   -0.47526
  137   -0.00583
  138   -0.00103
  139   -0.50306
  140    0.00056
  141   -0.00001
  142   -0.00053
  143    0.00007
  144    0.02666
  145   -0.00164
  146    0.00001
  147   -0.00005
  148   -0.00045
  149    0.00394
  150    0.00101
  151    0.33168
  152    0.00465
  153    0.00124
  154    0.38713
  155    0.00008
  156    0.00006
  157   -0.00011
  158    0.00009
  159    0.00394
  160    0.00707
  161   -0.00002
  162   -0.00001
  163    0.00042
  164    0.00363
  165    0.00102
  166    0.31018
  167    0.00430
  168    0.00132
  169    0.37457
  170    0.00008
  171   -0.00005
  172   -0.00006
  173   -0.00008
  174    0.00404
  175   -0.00750
 Ene= 0.0
 Spin= Alpha
 Occup=    -0.0011
    1   -0.00060
    2   -0.02021
    3   -0.05051
    4   -0.04901
    5    0.04214
    6    0.00088
    7   -0.00144
    8    0.01553
    9   -0.00001
   10    0.00110
   11   -0.00831
   12    0.00097
   13   -0.00160
   14    0.00009
   15   -0.00011
   16   -0.00065
   17    0.02654
   18    0.12542
   19    0.10016
   20   -0.03433
   21    0.00021
   22    0.06678
   23   -0.04044
   24    0.00084
   25    0.01006
   26   -0.00011
   27   -0.00117
   28   -0.00199
   29   -0.00019
   30    0.00005
   31   -0.00028
   32    0.02385
   33    0.04632
   34    0.04773
   35   -0.04522
   36   -0.00056
   37   -0.06809
   38   -0.06247
   39    0.00037
   40   -0.00393
   41   -0.00035
   42    0.00108
   43   -0.00007
   44    0.00013
   45    0.00011
   46    0.00223
   47   -0.00939
   48   -0.08637
   49   -0.02214
   50    0.01354
   51   -0.00025
   52   -0.04247
   53    0.03163
   54   -0.00034
   55   -0.00140
   56    0.00175
   57    0.00082
   58   -0.00281
   59    0.00000
   60    0.00008
   61    0.00045
   62    0.01163
   63   -0.00837
   64    0.02138
   65   -0.00916
   66    0.00018
   67    0.01867
   68    0.01252
   69    0.00101
   70   -0.00000
   71    0.00001
   72    0.00034
   73    0.00135
   74   -0.00003
   75   -0.00002
   76   -0.00033
   77    0.00515
   78    0.01197
   79    0.03448
   80   -0.02447
   81   -0.00100
   82    0.04292
   83   -0.01663
   84   -0.00152
   85    0.00184
   86    0.00004
   87   -0.00076
   88    0.00163
   89   -0.00005
   90   -0.00006
   91    0.05310
   92   -0.01421
   93   -0.00520
   94    0.00374
   95    0.00005
   96   -0.00558
   97    0.02198
   98   -0.00008
   99   -0.00025
  100   -0.00003
  101   -0.00799
  102    0.01676
  103   -0.00008
  104   -0.00023
  105    0.00003
  106   -0.02988
  107    0.00627
  108   -0.00082
  109    0.00201
  110   -0.00002
  111    0.00075
  112   -0.00391
  113   -0.00929
  114   -0.05314
  115    0.02933
  116    0.00081
  117   -0.04056
  118    0.01287
  119    0.00058
  120    0.00146
  121   -0.00057
  122    0.00076
  123    0.00224
  124    0.00000
  125   -0.00004
  126   -0.01038
  127    0.03261
  128    0.00753
  129   -0.00219
  130   -0.00011
  131   -0.00035
  132    0.00245
  133    0.00473
  134   -0.07029
  135   -0.05272
  136    0.00040
  137    0.00901
  138    0.03797
  139   -0.00108
  140    0.01873
  141   -0.02126
  142    0.00277
  143   -0.04852
  144   -0.00012
  145    0.00060
  146   -0.00146
  147   -0.01308
  148   -0.02689
  149   -0.12619
  150    0.26849
  151    0.00029
  152   -0.09244
  153    0.20368
  154    0.00035
  155    0.00973
  156   -0.01180
  157    0.00064
  158   -0.00367
  159   -0.00010
  160    0.00014
  161    0.00040
  162    0.00520
  163    0.01129
  164    0.50834
  165    0.28105
  166   -0.00626
  167    0.37687
  168    0.21097
  169   -0.00443
  170   -0.01480
  171    0.01426
  172    0.00022
  173    0.01018
  174    0.00016
  175   -0.00018
 Ene= 0.0
 Spin= Alpha
 Occup=     0.0011
    1   -0.00001
    2    0.00008
    3    0.00067
    4   -0.00005
    5    0.00004
    6   -0.00685
    7   -0.00101
    8   -0.00005
    9   -0.02168
   10    0.00004
   11   -0.00009
   12    0.00001
   13    0.00005
   14    0.00036
   15    0.00229
   16   -0.00010
   17   -0.00015
   18    0.00165
   19   -0.00008
   20   -0.00004
   21   -0.00750
   22    0.00060
   23   -0.00031
   24   -0.00561
   25   -0.00009
   26    0.00002
   27   -0.00002
   28   -0.00008
   29   -0.00172
   30   -0.00510
   31   -0.00003
   32    0.00012
   33    0.00107
   34    0.00035
   35   -0.00035
   36    0.00080
   37   -0.00027
   38   -0.00083
   39    0.02449
   40   -0.00000
   41   -0.00003
   42   -0.00004
   43   -0.00002
   44    0.00190
   45   -0.00010
   46   -0.00001
   47    0.00006
   48    0.00029
   49   -0.00029
   50   -0.00004
   51    0.00076
   52   -0.00106
   53   -0.00034
   54   -0.02196
   55   -0.00004
   56   -0.00001
   57    0.00003
   58   -0.00001
   59   -0.00141
   60    0.00131
   61   -0.00004
   62    0.00007
   63    0.00126
   64    0.00014
   65   -0.00021
   66    0.01992
   67    0.00004
   68   -0.00000
   69    0.03241
   70   -0.00003
   71    0.00001
   72   -0.00002
   73   -0.00001
   74   -0.00019
   75   -0.00093
   76   -0.00000
   77    0.00013
   78   -0.00012
   79   -0.00010
   80    0.00019
   81   -0.00730
   82   -0.00055
   83    0.00051
   84   -0.00802
   85   -0.00004
   86   -0.00000
   87    0.00002
   88    0.00000
   89   -0.00101
   90   -0.00124
   91    0.00026
   92   -0.00106
   93   -0.00000
   94    0.00002
   95    0.00037
   96   -0.00007
   97   -0.00152
   98   -0.00000
   99   -0.00001
  100    0.00035
  101   -0.00011
  102   -0.00147
  103   -0.00001
  104   -0.00001
  105    0.00092
  106    0.00005
  107   -0.00100
  108   -0.00000
  109   -0.00000
  110   -0.00067
  111   -0.00002
  112   -0.00004
  113    0.00008
  114    0.00108
  115   -0.00034
  116    0.04114
  117    0.00084
  118   -0.00027
  119    0.03373
  120    0.00001
  121    0.00001
  122   -0.00003
  123   -0.00002
  124    0.00032
  125   -0.00069
  126    0.00017
  127   -0.00003
  128   -0.00007
  129    0.00001
  130   -0.00158
  131    0.00007
  132    0.00001
  133   -0.00114
  134    0.00001
  135   -0.00007
  136   -0.01357
  137    0.00028
  138   -0.00005
  139   -0.01830
  140   -0.00003
  141   -0.00031
  142    0.00043
  143   -0.00075
  144   -0.00200
  145   -0.06308
  146    0.00001
  147    0.00006
  148    0.00004
  149   -0.00533
  150   -0.00139
  151   -0.43275
  152   -0.00431
  153   -0.00111
  154   -0.34521
  155    0.00028
  156    0.00008
  157   -0.00036
  158    0.00021
  159    0.01294
  160    0.01394
  161   -0.00000
  162    0.00002
  163    0.00014
  164    0.00538
  165    0.00157
  166    0.46317
  167    0.00426
  168    0.00127
  169    0.37721
  170   -0.00020
  171    0.00009
  172    0.00009
  173    0.00016
  174   -0.00969
  175    0.01657
 Ene= 0.0
 Spin= Alpha
 Occup=    -0.0001
    1   -0.00002
    2   -0.00036
    3   -0.00148
    4   -0.00203
    5    0.00065
    6   -0.14461
    7   -0.00169
    8    0.00152
    9   -0.17496
   10    0.00000
   11    0.00000
   12   -0.00005
   13    0.00015
   14    0.00198
   15    0.00795
   16    0.00003
   17   -0.00002
   18   -0.00117
   19    0.00020
   20   -0.00017
   21    0.02032
   22    0.00054
   23    0.00183
   24    0.02032
   25    0.00102
   26   -0.00008
   27   -0.00096
   28    0.00011
   29    0.04859
   30   -0.00334
   31    0.00003
   32    0.00015
   33    0.00074
   34   -0.00122
   35    0.00082
   36   -0.11962
   37   -0.00191
   38    0.00260
   39   -0.17327
   40    0.00003
   41    0.00009
   42    0.00002
   43   -0.00003
   44   -0.00097
   45   -0.00460
   46    0.00003
   47   -0.00015
   48   -0.00147
   49    0.00037
   50    0.00005
   51    0.03724
   52    0.00118
   53   -0.00010
   54    0.08648
   55   -0.00024
   56    0.00000
   57    0.00025
   58    0.00010
   59   -0.01125
   60    0.00215
   61    0.00003
   62   -0.00008
   63   -0.00112
   64    0.00094
   65   -0.00013
   66    0.07407
   67    0.00062
   68   -0.00046
   69    0.02977
   70    0.00003
   71   -0.00001
   72    0.00000
   73   -0.00000
   74    0.00045
   75   -0.00096
   76   -0.00001
   77    0.00007
   78    0.00101
   79    0.00045
   80   -0.00007
   81    0.01540
   82    0.00104
   83   -0.00077
   84    0.06147
   85   -0.00025
   86    0.00001
   87    0.00027
   88    0.00003
   89   -0.01364
   90   -0.00049
   91    0.00012
   92    0.00227
   93   -0.00005
   94    0.00003
   95   -0.00556
   96    0.00016
   97    0.00139
   98    0.00003
   99    0.00001
  100    0.00225
  101    0.00007
  102    0.00109
  103    0.00004
  104    0.00000
  105    0.00281
  106   -0.00005
  107    0.00027
  108    0.00002
  109    0.00001
  110    0.00177
  111    0.00001
  112    0.00017
  113    0.00022
  114    0.00105
  115   -0.00021
  116    0.06515
  117    0.00147
  118   -0.00006
  119    0.08218
  120    0.00005
  121   -0.00002
  122   -0.00004
  123    0.00001
  124    0.00267
  125    0.00272
  126   -0.00025
  127   -0.00123
  128   -0.00006
  129   -0.00001
  130   -0.00144
  131   -0.00002
  132    0.00002
  133    0.00047
  134    0.00552
  135    0.00155
  136    0.48289
  137    0.00593
  138    0.00114
  139    0.51594
  140   -0.00050
  141    0.00006
  142    0.00042
  143    0.00002
  144   -0.02413
  145    0.01321
  146   -0.00002
  147    0.00001
  148    0.00038
  149   -0.00298
  150   -0.00049
  151   -0.24632
  152   -0.00388
  153   -0.00081
  154   -0.32090
  155   -0.00012
  156   -0.00009
  157    0.00018
  158   -0.00014
  159   -0.00648
  160   -0.01010
  161    0.00002
  162    0.00001
  163   -0.00046
  164   -0.00421
  165   -0.00105
  166   -0.39232
  167   -0.00479
  168   -0.00137
  169   -0.44306
  170   -0.00005
  171    0.00005
  172    0.00004
  173    0.00006
  174   -0.00234
  175    0.00485
 Ene= 0.0
 Spin= Alpha
 Occup=     0.0001
    1    0.00005
    2    0.00664
    3    0.07474
    4   -0.09989
    5    0.06711
    6    0.00075
    7   -0.11370
    8   -0.01518
    9    0.00144
   10    0.01668
   11   -0.02255
   12    0.00072
   13    0.00426
   14   -0.00033
   15    0.00016
   16    0.00423
   17    0.03894
   18    0.07469
   19    0.23830
   20   -0.02835
   21   -0.00608
   22    0.18668
   23   -0.03453
   24   -0.00543
   25    0.03244
   26   -0.01514
   27   -0.00068
   28   -0.00187
   29   -0.00040
   30    0.00004
   31    0.00098
   32    0.00009
   33    0.00900
   34   -0.08641
   35   -0.04547
   36    0.00008
   37   -0.08419
   38   -0.01633
   39    0.00047
   40    0.00848
   41   -0.01526
   42    0.00144
   43    0.00130
   44   -0.00031
   45   -0.00026
   46    0.00113
   47    0.00876
   48   -0.04593
   49    0.08970
   50    0.01492
   51    0.00045
   52    0.03151
   53    0.01419
   54    0.00165
   55    0.00734
   56   -0.00597
   57   -0.00007
   58   -0.00461
   59   -0.00015
   60    0.00006
   61   -0.00056
   62    0.00173
   63   -0.00333
   64   -0.04956
   65   -0.01023
   66    0.00108
   67   -0.00595
   68   -0.01579
   69   -0.00048
   70    0.01056
   71   -0.01059
   72    0.00049
   73   -0.00083
   74   -0.00006
   75   -0.00006
   76    0.00163
   77    0.01827
   78   -0.04660
   79    0.11105
   80   -0.00520
   81   -0.00051
   82    0.00378
   83   -0.00316
   84    0.00095
   85    0.00752
   86   -0.00679
   87    0.00103
   88    0.00583
   89   -0.00010
   90   -0.00010
   91   -0.01581
   92   -0.00696
   93   -0.00479
   94   -0.00124
   95    0.00002
   96   -0.05279
   97   -0.01444
   98    0.00060
   99   -0.00351
  100    0.00005
  101    0.05828
  102    0.04682
  103    0.00232
  104   -0.00007
  105   -0.00002
  106   -0.04783
  107   -0.03306
  108    0.00140
  109    0.00271
  110    0.00003
  111   -0.00125
  112   -0.01751
  113   -0.02003
  114    0.12446
  115   -0.06923
  116   -0.00075
  117    0.07988
  118   -0.05855
  119   -0.00033
  120    0.00404
  121    0.00005
  122   -0.00222
  123   -0.00053
  124   -0.00009
  125    0.00000
  126    0.06535
  127    0.00022
  128   -0.01171
  129    0.00180
  130    0.00023
  131   -0.00277
  132    0.01429
  133    0.06781
  134   -0.18833
  135    0.02812
  136    0.00265
  137   -0.02583
  138    0.01201
  139    0.00112
  140    0.04905
  141   -0.05421
  142    0.00554
  143    0.00141
  144   -0.00039
  145    0.00019
  146    0.00257
  147    0.00626
  148   -0.02336
  149    0.43343
  150   -0.13584
  151   -0.00414
  152    0.34242
  153   -0.10393
  154   -0.00341
  155   -0.00902
  156    0.00586
  157    0.00417
  158   -0.00764
  159    0.00020
  160    0.00004