[Molden Format]
[Title]
Written by TeraChem
[Atoms] Angs
C   1   6      2.11486    1.18872    0.00109
C   2   6      2.76911   -0.05309   -0.00895
C   3   6      2.04304   -1.25050   -0.00300
C   4   6      0.66644   -1.22550    0.01291
C   5   6      0.00008   -0.00334    0.02325
C   6   6      0.71478    1.18509    0.01745
H   7   1      2.58029   -2.18421   -0.01105
H   8   1      0.11285   -2.15359    0.01756
H   9   1     -1.08084    0.02552    0.03582
H   10   1      0.21570    2.14290    0.02519
O   11   8      2.70716    2.39093   -0.00304
H   12   1      3.64980    2.28964   -0.01702
N   13   7      4.22168   -0.14829   -0.02560
O   14   8      4.86556    0.87173   -0.03660
O   15   8      4.71978   -1.23549   -0.02791
[GTO]
    1 0
 s    8 1.00
         6665.000000             0.000692
         1000.000000             0.005326
          228.000000             0.027061
           64.710000             0.101657
           21.060000             0.274575
            7.495000             0.448294
            2.797000             0.284903
            0.521500             0.015195
 s    8 1.00
         6665.000000            -0.000293
         1000.000000            -0.002318
          228.000000            -0.011500
           64.710000            -0.046827
           21.060000            -0.128466
            7.495000            -0.301266
            2.797000            -0.255631
            0.521500             1.093793
 s    1 1.00
            0.159600             1.000000
 p    3 1.00
            9.439000             0.056979
            2.002000             0.313207
            0.545600             0.760377
 p    1 1.00
            0.151700             1.000000
 d    1 1.00
            0.550000             1.000000

    2 0
 s    8 1.00
         6665.000000             0.000692
         1000.000000             0.005326
          228.000000             0.027061
           64.710000             0.101657
           21.060000             0.274575
            7.495000             0.448294
            2.797000             0.284903
            0.521500             0.015195
 s    8 1.00
         6665.000000            -0.000293
         1000.000000            -0.002318
          228.000000            -0.011500
           64.710000            -0.046827
           21.060000            -0.128466
            7.495000            -0.301266
            2.797000            -0.255631
            0.521500             1.093793
 s    1 1.00
            0.159600             1.000000
 p    3 1.00
            9.439000             0.056979
            2.002000             0.313207
            0.545600             0.760377
 p    1 1.00
            0.151700             1.000000
 d    1 1.00
            0.550000             1.000000

    3 0
 s    8 1.00
         6665.000000             0.000692
         1000.000000             0.005326
          228.000000             0.027061
           64.710000             0.101657
           21.060000             0.274575
            7.495000             0.448294
            2.797000             0.284903
            0.521500             0.015195
 s    8 1.00
         6665.000000            -0.000293
         1000.000000            -0.002318
          228.000000            -0.011500
           64.710000            -0.046827
           21.060000            -0.128466
            7.495000            -0.301266
            2.797000            -0.255631
            0.521500             1.093793
 s    1 1.00
            0.159600             1.000000
 p    3 1.00
            9.439000             0.056979
            2.002000             0.313207
            0.545600             0.760377
 p    1 1.00
            0.151700             1.000000
 d    1 1.00
            0.550000             1.000000

    4 0
 s    8 1.00
         6665.000000             0.000692
         1000.000000             0.005326
          228.000000             0.027061
           64.710000             0.101657
           21.060000             0.274575
            7.495000             0.448294
            2.797000             0.284903
            0.521500             0.015195
 s    8 1.00
         6665.000000            -0.000293
         1000.000000            -0.002318
          228.000000            -0.011500
           64.710000            -0.046827
           21.060000            -0.128466
            7.495000            -0.301266
            2.797000            -0.255631
            0.521500             1.093793
 s    1 1.00
            0.159600             1.000000
 p    3 1.00
            9.439000             0.056979
            2.002000             0.313207
            0.545600             0.760377
 p    1 1.00
            0.151700             1.000000
 d    1 1.00
            0.550000             1.000000

    5 0
 s    8 1.00
         6665.000000             0.000692
         1000.000000             0.005326
          228.000000             0.027061
           64.710000             0.101657
           21.060000             0.274575
            7.495000             0.448294
            2.797000             0.284903
            0.521500             0.015195
 s    8 1.00
         6665.000000            -0.000293
         1000.000000            -0.002318
          228.000000            -0.011500
           64.710000            -0.046827
           21.060000            -0.128466
            7.495000            -0.301266
            2.797000            -0.255631
            0.521500             1.093793
 s    1 1.00
            0.159600             1.000000
 p    3 1.00
            9.439000             0.056979
            2.002000             0.313207
            0.545600             0.760377
 p    1 1.00
            0.151700             1.000000
 d    1 1.00
            0.550000             1.000000

    6 0
 s    8 1.00
         6665.000000             0.000692
         1000.000000             0.005326
          228.000000             0.027061
           64.710000             0.101657
           21.060000             0.274575
            7.495000             0.448294
            2.797000             0.284903
            0.521500             0.015195
 s    8 1.00
         6665.000000            -0.000293
         1000.000000            -0.002318
          228.000000            -0.011500
           64.710000            -0.046827
           21.060000            -0.128466
            7.495000            -0.301266
            2.797000            -0.255631
            0.521500             1.093793
 s    1 1.00
            0.159600             1.000000
 p    3 1.00
            9.439000             0.056979
            2.002000             0.313207
            0.545600             0.760377
 p    1 1.00
            0.151700             1.000000
 d    1 1.00
            0.550000             1.000000

    7 0
 s    3 1.00
           13.010000             0.033499
            1.962000             0.234801
            0.444600             0.813683
 s    1 1.00
            0.122000             1.000000
 p    1 1.00
            0.727000             1.000000

    8 0
 s    3 1.00
           13.010000             0.033499
            1.962000             0.234801
            0.444600             0.813683
 s    1 1.00
            0.122000             1.000000
 p    1 1.00
            0.727000             1.000000

    9 0
 s    3 1.00
           13.010000             0.033499
            1.962000             0.234801
            0.444600             0.813683
 s    1 1.00
            0.122000             1.000000
 p    1 1.00
            0.727000             1.000000

   10 0
 s    3 1.00
           13.010000             0.033499
            1.962000             0.234801
            0.444600             0.813683
 s    1 1.00
            0.122000             1.000000
 p    1 1.00
            0.727000             1.000000

   11 0
 s    8 1.00
        11720.000000             0.000710
         1759.000000             0.005467
          400.800000             0.027823
          113.700000             0.104748
           37.030000             0.282921
           13.270000             0.448495
            5.025000             0.270817
            1.013000             0.015450
 s    8 1.00
        11720.000000            -0.000314
         1759.000000            -0.002482
          400.800000            -0.012316
          113.700000            -0.050539
           37.030000            -0.139385
           13.270000            -0.325077
            5.025000            -0.229848
            1.013000             1.095379
 s    1 1.00
            0.302300             1.000000
 p    3 1.00
           17.700000             0.062679
            3.854000             0.333537
            1.046000             0.741240
 p    1 1.00
            0.275300             1.000000
 d    1 1.00
            1.185000             1.000000

   12 0
 s    3 1.00
           13.010000             0.033499
            1.962000             0.234801
            0.444600             0.813683
 s    1 1.00
            0.122000             1.000000
 p    1 1.00
            0.727000             1.000000

   13 0
 s    8 1.00
         9046.000000             0.000700
         1357.000000             0.005386
          309.300000             0.027391
           87.730000             0.103151
           28.560000             0.278571
           10.210000             0.448295
            3.838000             0.278086
            0.746600             0.015432
 s    8 1.00
         9046.000000            -0.000305
         1357.000000            -0.002408
          309.300000            -0.011944
           87.730000            -0.048926
           28.560000            -0.134473
           10.210000            -0.315113
            3.838000            -0.242858
            0.746600             1.094382
 s    1 1.00
            0.224800             1.000000
 p    3 1.00
           13.550000             0.058906
            2.917000             0.320461
            0.797300             0.753042
 p    1 1.00
            0.218500             1.000000
 d    1 1.00
            0.817000             1.000000

   14 0
 s    8 1.00
        11720.000000             0.000710
         1759.000000             0.005467
          400.800000             0.027823
          113.700000             0.104748
           37.030000             0.282921
           13.270000             0.448495
            5.025000             0.270817
            1.013000             0.015450
 s    8 1.00
        11720.000000            -0.000314
         1759.000000            -0.002482
          400.800000            -0.012316
          113.700000            -0.050539
           37.030000            -0.139385
           13.270000            -0.325077
            5.025000            -0.229848
            1.013000             1.095379
 s    1 1.00
            0.302300             1.000000
 p    3 1.00
           17.700000             0.062679
            3.854000             0.333537
            1.046000             0.741240
 p    1 1.00
            0.275300             1.000000
 d    1 1.00
            1.185000             1.000000

   15 0
 s    8 1.00
        11720.000000             0.000710
         1759.000000             0.005467
          400.800000             0.027823
          113.700000             0.104748
           37.030000             0.282921
           13.270000             0.448495
            5.025000             0.270817
            1.013000             0.015450
 s    8 1.00
        11720.000000            -0.000314
         1759.000000            -0.002482
          400.800000            -0.012316
          113.700000            -0.050539
           37.030000            -0.139385
           13.270000            -0.325077
            5.025000            -0.229848
            1.013000             1.095379
 s    1 1.00
            0.302300             1.000000
 p    3 1.00
           17.700000             0.062679
            3.854000             0.333537
            1.046000             0.741240
 p    1 1.00
            0.275300             1.000000
 d    1 1.00
            1.185000             1.000000

[MO]
 Ene= 0.0
 Spin= Alpha
 Occup=    -0.8615
    1    0.00061
    2    0.01957
    3    0.05155
    4    0.04872
    5   -0.04254
    6   -0.00081
    7    0.00147
    8   -0.01405
    9   -0.00014
   10   -0.00119
   11    0.00865
   12   -0.00105
   13    0.00200
   14   -0.00007
   15    0.00005
   16    0.00065
   17   -0.02719
   18   -0.12390
   19   -0.10047
   20    0.03440
   21    0.00029
   22   -0.06513
   23    0.03756
   24    0.00017
   25   -0.00947
   26   -0.00022
   27    0.00111
   28    0.00196
   29    0.00017
   30   -0.00000
   31    0.00058
   32   -0.02444
   33   -0.05515
   34   -0.04837
   35    0.04626
   36   -0.00031
   37    0.06190
   38    0.06405
   39   -0.00119
   40    0.00384
   41    0.00063
   42   -0.00093
   43   -0.00021
   44   -0.00004
   45   -0.00006
   46   -0.00169
   47    0.00850
   48    0.06807
   49    0.02337
   50   -0.01145
   51   -0.00059
   52    0.04523
   53   -0.02260
   54   -0.00086
   55    0.00149
   56   -0.00152
   57   -0.00055
   58    0.00296
   59   -0.00011
   60   -0.00001
   61    0.00011
   62   -0.01243
   63   -0.01094
   64   -0.01893
   65    0.00894
   66    0.00080
   67   -0.01006
   68   -0.01394
   69    0.00061
   70    0.00033
   71   -0.00006
   72   -0.00004
   73   -0.00135
   74    0.00001
   75    0.00007
   76    0.00065
   77   -0.00584
   78   -0.02138
   79   -0.03343
   80    0.02316
   81    0.00112
   82   -0.04222
   83    0.00946
   84    0.00109
   85   -0.00180
   86    0.00020
   87    0.00092
   88   -0.00190
   89    0.00001
   90   -0.00001
   91   -0.05223
   92    0.02551
   93    0.00520
   94   -0.00371
   95   -0.00009
   96    0.00623
   97   -0.00087
   98    0.00019
   99    0.00038
  100   -0.00001
  101    0.00880
  102    0.00474
  103    0.00028
  104    0.00023
  105    0.00002
  106    0.03069
  107    0.00829
  108    0.00087
  109   -0.00204
  110    0.00001
  111   -0.00070
  112    0.00440
  113    0.00970
  114    0.05331
  115   -0.03052
  116   -0.00091
  117    0.04119
  118   -0.01360
  119   -0.00065
  120   -0.00145
  121    0.00056
  122   -0.00073
  123   -0.00232
  124    0.00000
  125    0.00004
  126    0.01039
  127   -0.03476
  128   -0.00755
  129    0.00210
  130    0.00012
  131    0.00049
  132   -0.00152
  133   -0.00387
  134    0.06894
  135    0.05278
  136   -0.00104
  137   -0.00864
  138   -0.03740
  139    0.00024
  140   -0.01876
  141    0.02120
  142   -0.00262
  143    0.04852
  144    0.00011
  145   -0.00067
  146    0.00146
  147    0.01304
  148    0.02648
  149    0.12721
  150   -0.26840
  151   -0.00049
  152    0.09328
  153   -0.20310
  154   -0.00033
  155   -0.00972
  156    0.01176
  157   -0.00063
  158    0.00367
  159    0.00012
  160   -0.00010
  161   -0.00038
  162   -0.00545
  163   -0.01220
  164   -0.50757
  165   -0.28117
  166    0.00718
  167   -0.37596
  168   -0.21107
  169    0.00536
  170    0.01482
  171   -0.01425
  172   -0.00018
  173   -0.01018
  174   -0.00017
  175    0.00018
 Ene= 0.0
 Spin= Alpha
 Occup=     0.8615
    1    0.00002
    2    0.00030
    3    0.00143
    4    0.00200
    5   -0.00065
    6    0.14568
    7    0.00183
    8   -0.00144
    9    0.17823
   10   -0.00005
   11    0.00001
   12    0.00009
   13   -0.00011
   14   -0.00395
   15   -0.00670
   16   -0.00002
   17    0.00001
   18    0.00118
   19   -0.00039
   20    0.00019
   21   -0.04001
   22   -0.00076
   23   -0.00197
   24   -0.04399
   25   -0.00099
   26    0.00006
   27    0.00096
   28   -0.00011
   29   -0.04898
   30    0.00348
   31   -0.00001
   32   -0.00018
   33   -0.00131
   34    0.00124
   35   -0.00077
   36    0.12230
   37    0.00167
   38   -0.00250
   39    0.18201
   40   -0.00006
   41   -0.00006
   42    0.00000
   43    0.00000
   44   -0.00007
   45    0.00339
   46    0.00001
   47    0.00009
   48    0.00036
   49   -0.00028
   50    0.00008
   51   -0.03560
   52   -0.00094
   53    0.00066
   54   -0.08153
   55    0.00026
   56    0.00001
   57   -0.00025
   58   -0.00010
   59    0.01199
   60   -0.00268
   61    0.00001
   62    0.00004
   63   -0.00006
   64   -0.00085
   65    0.00014
   66   -0.08041
   67   -0.00030
   68    0.00043
   69   -0.04701
   70   -0.00000
   71    0.00001
   72    0.00001
   73    0.00001
   74    0.00015
   75    0.00189
   76    0.00003
   77   -0.00012
   78   -0.00148
   79   -0.00020
   80   -0.00007
   81    0.00034
   82   -0.00066
   83    0.00028
   84   -0.03934
   85    0.00026
   86    0.00000
   87   -0.00027
   88   -0.00005
   89    0.01418
   90    0.00089
   91   -0.00006
   92   -0.00154
   93    0.00005
   94   -0.00003
   95    0.00574
   96   -0.00011
   97   -0.00006
   98   -0.00002
   99   -0.00000
  100   -0.00218
  101   -0.00003
  102    0.00024
  103   -0.00004
  104   -0.00000
  105   -0.00321
  106    0.00007
  107    0.00061
  108   -0.00001
  109   -0.00001
  110   -0.00101
  111   -0.00001
  112   -0.00014
  113   -0.00021
  114   -0.00120
  115    0.00021
  116   -0.06778
  117   -0.00156
  118    0.00006
  119   -0.08459
  120   -0.00005
  121    0.00002
  122    0.00005
  123   -0.00001
  124   -0.00281
  125   -0.00266
  126    0.00021
  127    0.00114
  128    0.00007
  129   -0.00000
  130    0.00150
  131    0.00003
  132    0.00003
  133   -0.00033
  134   -0.00563
  135   -0.00159
  136   -0.48231
  137   -0.00591
  138   -0.00106
  139   -0.51287
  140    0.00054
  141   -0.00004
  142   -0.00048
  143    0.00001
  144    0.02585
  145   -0.00695
  146    0.00001
  147   -0.00004
  148   -0.00044
  149    0.00350
  150    0.00090
  151    0.29637
  152    0.00431
  153    0.00116
  154    0.36083
  155    0.00010
  156    0.00007
  157   -0.00014
  158    0.00011
  159    0.00511
  160    0.00848
  161   -0.00002
  162   -0.00002
  163    0.00042
  164    0.00412
  165    0.00115
  166    0.35085
  167    0.00471
  168    0.00144
  169    0.40944
  170    0.00006
  171   -0.00004
  172   -0.00005
  173   -0.00007
  174    0.00328
  175   -0.00632
 Ene= 0.0
 Spin= Alpha
 Occup=    -0.0011
    1    0.00019
    2    0.00832
    3    0.08913
    4   -0.09253
    5    0.05823
    6    0.00094
    7   -0.11456
    8   -0.01303
    9    0.00088
   10    0.01636
   11   -0.01996
   12    0.00026
   13    0.00607
   14   -0.00025
   15   -0.00014
   16    0.00442
   17    0.03185
   18    0.05662
   19    0.22040
   20   -0.02175
   21   -0.00275
   22    0.18174
   23   -0.03744
   24   -0.00203
   25    0.03296
   26   -0.01645
   27   -0.00069
   28   -0.00162
   29   -0.00047
   30    0.00001
   31    0.00211
   32   -0.00666
   33   -0.03171
   34   -0.09892
   35   -0.03347
   36    0.00087
   37   -0.09415
   38    0.00131
   39    0.00116
   40    0.00902
   41   -0.01437
   42    0.00178
   43    0.00033
   44   -0.00006
   45   -0.00004
   46    0.00263
   47    0.00748
   48   -0.09560
   49    0.09944
   50    0.02000
   51   -0.00170
   52    0.05006
   53    0.04073
   54   -0.00153
   55    0.00802
   56   -0.00555
   57    0.00073
   58   -0.00355
   59   -0.00014
   60    0.00007
   61    0.00138
   62   -0.00337
   63   -0.07132
   64   -0.04551
   65   -0.00935
   66    0.00129
   67    0.02134
   68   -0.02351
   69    0.00069
   70    0.01187
   71   -0.01090
   72    0.00153
   73   -0.00112
   74   -0.00012
   75    0.00007
   76    0.00286
   77    0.01497
   78   -0.08336
   79    0.10938
   80   -0.00522
   81   -0.00047
   82   -0.00198
   83   -0.02580
   84    0.00066
   85    0.00739
   86   -0.00601
   87    0.00175
   88    0.00462
   89   -0.00012
   90   -0.00013
   91   -0.02320
   92    0.03642
   93   -0.00384
   94   -0.00185
   95    0.00004
   96   -0.04994
   97    0.05715
   98    0.00105
   99   -0.00303
  100   -0.00005
  101    0.06343
  102    0.12154
  103    0.00309
  104   -0.00001
  105   -0.00000
  106   -0.03966
  107    0.01781
  108    0.00176
  109    0.00222
  110    0.00002
  111   -0.00121
  112   -0.01517
  113   -0.01696
  114    0.13675
  115   -0.07998
  116   -0.00215
  117    0.09091
  118   -0.06433
  119   -0.00135
  120    0.00386
  121    0.00013
  122   -0.00229
  123   -0.00127
  124   -0.00010
  125    0.00004
  126    0.06812
  127   -0.01385
  128   -0.01338
  129    0.00190
  130    0.00023
  131   -0.00224
  132    0.01730
  133    0.07076
  134   -0.18165
  135    0.03890
  136    0.00132
  137   -0.02652
  138    0.00682
  139   -0.00038
  140    0.04583
  141   -0.05090
  142    0.00561
  143    0.01086
  144   -0.00054
  145    0.00019
  146    0.00288
  147    0.00872
  148   -0.01989
  149    0.46650
  150   -0.18919
  151   -0.00363
  152    0.36725
  153   -0.14258
  154   -0.00269
  155   -0.01101
  156    0.00808
  157    0.00412
  158   -0.00701
  159    0.00023
  160    0.00005
  161   -0.00001
  162    0.00009
  163   -0.00631
  164    0.21175
  165   -0.09334
  166   -0.00258
  167    0.16855
  168   -0.06588
  169   -0.00191
  170    0.00130
  171   -0.00597
  172    0.00291
  173    0.00646
  174    0.00002
  175   -0.00008
 Ene= 0.0
 Spin= Alpha
 Occup=     0.0011
    1    0.00001
    2    0.00003
    3   -0.00068
    4    0.00014
    5   -0.00001
    6    0.01070
    7    0.00101
    8   -0.00023
    9    0.02537
   10   -0.00001
   11    0.00004
   12   -0.00002
   13   -0.00013
   14    0.00054
   15   -0.00373
   16    0.00009
   17    0.00025
   18   -0.00169
   19    0.00029
   20    0.00001
   21    0.01713
   22   -0.00065
   23    0.00046
   24    0.02139
   25   -0.00006
   26    0.00003
   27    0.00011
   28    0.00006
   29   -0.00246
   30    0.00485
   31   -0.00001
   32   -0.00006
   33   -0.00000
   34   -0.00015
   35    0.00012
   36    0.00956
   37    0.00121
   38    0.00035
   39   -0.01069
   40    0.00003
   41   -0.00002
   42    0.00000
   43    0.00007
   44   -0.00074
   45    0.00138
   46   -0.00006
   47    0.00007
   48    0.00218
   49    0.00002
   50   -0.00021
   51   -0.01119
   52    0.00042
   53   -0.00076
   54   -0.00096
   55    0.00004
   56   -0.00002
   57   -0.00007
   58   -0.00001
   59    0.00185
   60   -0.00070
   61   -0.00003
   62    0.00004
   63    0.00127
   64   -0.00039
   65    0.00022
   66   -0.01490
   67   -0.00093
   68    0.00018
   69   -0.01298
   70   -0.00003
   71   -0.00001
   72   -0.00001
   73    0.00002
   74   -0.00023
   75    0.00121
   76   -0.00004
   77   -0.00005
   78    0.00122
   79   -0.00012
   80   -0.00002
   81    0.00021
   82    0.00027
   83    0.00046
   84   -0.00721
   85    0.00003
   86   -0.00002
   87   -0.00004
   88    0.00002
   89    0.00091
   90    0.00054
   91   -0.00037
   92   -0.00063
   93    0.00000
   94   -0.00002
   95    0.00010
   96   -0.00004
   97   -0.00130
   98   -0.00002
   99   -0.00000
  100   -0.00097
  101    0.00000
  102   -0.00134
  103   -0.00001
  104    0.00001
  105   -0.00056
  106   -0.00016
  107   -0.00085
  108   -0.00001
  109    0.00001
  110    0.00024
  111    0.00001
  112   -0.00004
  113   -0.00016
  114   -0.00116
  115    0.00051
  116   -0.04350
  117   -0.00100
  118    0.00036
  119   -0.03628
  120   -0.00001
  121   -0.00000
  122    0.00002
  123    0.00003
  124   -0.00029
  125    0.00062
  126   -0.00015
  127    0.00043
  128    0.00009
  129    0.00000
  130    0.00218
  131   -0.00008
  132   -0.00013
  133    0.00100
  134   -0.00044
  135   -0.00011
  136   -0.03529
  137   -0.00096
  138   -0.00015
  139   -0.03554
  140    0.00008
  141    0.00030
  142   -0.00047
  143    0.00075
  144    0.00356
  145    0.06275
  146   -0.00001
  147   -0.00005
  148   -0.00002
  149    0.00553
  150    0.00152
  151    0.46198
  152    0.00462
  153    0.00118
  154    0.38141
  155   -0.00027
  156   -0.00007
  157    0.00034
  158   -0.00020
  159   -0.01245
  160   -0.01300
  161   -0.00000
  162    0.00001
  163    0.00002
  164   -0.00495
  165   -0.00139
  166   -0.43327
  167   -0.00382
  168   -0.00108
  169   -0.34005
  170    0.00020
  171   -0.00009
  172   -0.00010
  173   -0.00017
  174    0.01008
  175   -0.01747
 Ene= 0.0
 Spin= Alpha
 Occup=    -0.0001
    1    0.00002
    2    0.00022
    3    0.00109
    4    0.00197
    5   -0.00079
    6    0.13065
    7    0.00211
    8   -0.00118
    9    0.16378
   10    0.00005
   11    0.00013
   12   -0.00009
   13   -0.00019
   14    0.00355
   15   -0.01301
   16    0.00001
   17   -0.00005
   18    0.00056
   19    0.00004
   20    0.00010
   21    0.03628
   22   -0.00005
   23   -0.00214
   24    0.06208
   25   -0.00092
   26    0.00005
   27    0.00092
   28   -0.00007
   29   -0.04573
   30    0.00689
   31    0.00002
   32   -0.00027
   33   -0.00233
   34    0.00089
   35   -0.00044
   36    0.09266
   37    0.00084
   38   -0.00198
   39    0.11120
   40   -0.00000
   41   -0.00002
   42   -0.00004
   43    0.00004
   44    0.00310
   45    0.00819
   46    0.00005
   47   -0.00001
   48   -0.00093
   49   -0.00038
   50    0.00024
   51   -0.04713
   52   -0.00070
   53    0.00146
   54   -0.10170
   55    0.00017
   56    0.00003
   57   -0.00012
   58   -0.00001
   59    0.00748
   60    0.00101
   61    0.00007
   62   -0.00005
   63   -0.00202
   64    0.00005
   65    0.00010
   66   -0.02991
   67    0.00159
   68    0.00010
   69    0.04930
   70   -0.00003
   71    0.00003
   72    0.00007
   73   -0.00001
   74   -0.00173
   75   -0.00031
   76    0.00005
   77   -0.00026
   78   -0.00213
   79   -0.00088
   80   -0.00014
   81   -0.04875
   82   -0.00145
   83   -0.00035
   84   -0.12508
   85    0.00017
   86    0.00005
   87   -0.00019
   88   -0.00011
   89    0.01009
   90   -0.00232
   91   -0.00006
   92   -0.00042
   93    0.00004
   94   -0.00003
   95    0.00403
   96    0.00005
   97    0.00205
   98   -0.00002
   99    0.00002
  100   -0.00307
  101   -0.00004
  102    0.00232
  103    0.00002
  104   -0.00001
  105   -0.00054
  106    0.00020
  107    0.00226
  108   -0.00004
  109   -0.00001
  110   -0.00334
  111    0.00000
  112   -0.00006
  113   -0.00018
  114   -0.00179
  115    0.00037
  116   -0.08059
  117   -0.00189
  118    0.00020
  119   -0.09128
  120   -0.00005
  121    0.00002
  122    0.00005
  123   -0.00001
  124   -0.00209
  125   -0.00210
  126    0.00000
  127    0.00102
  128    0.00014
  129   -0.00002
  130    0.00335
  131    0.00001
  132    0.00006
  133    0.00010
  134   -0.00550
  135   -0.00164
  136   -0.48425
  137   -0.00618
  138   -0.00112
  139   -0.52356
  140    0.00036
  141    0.00016
  142   -0.00054
  143    0.00030
  144    0.02142
  145    0.01761
  146    0.00001
  147   -0.00004
  148   -0.00039
  149    0.00457
  150    0.00167
  151    0.44814
  152    0.00523
  153    0.00180
  154    0.48524
  155    0.00002
  156    0.00003
  157   -0.00002
  158    0.00006
  159    0.00038
  160    0.00409
  161   -0.00002
  162   -0.00006
  163    0.00025
  164    0.00160
  165    0.00058
  166    0.16226
  167    0.00279
  168    0.00097
  169    0.25835
  170    0.00014
  171   -0.00007
  172   -0.00009
  173   -0.00015
  174    0.00720
  175   -0.01356
 Ene= 0.0
 Spin= Alpha
 Occup=     0.0001
    1   -0.00053
    2   -0.01424
    3   -0.02252
    4   -0.07537
    5    0.06012
    6    0.00164
    7   -0.03859
    8    0.00543
    9   -0.00003
   10    0.00663
   11   -0.01549
   12    0.00126
   13   -0.00093
   14    0.00024
   15   -0.00052
   16    0.00080
   17    0.03769
   18    0.13194
   19    0.16736
   20   -0.03981
   21    0.00417
   22    0.11653
   23   -0.04058
   24    0.00494
   25    0.01819
   26   -0.00433
   27   -0.00111
   28   -0.00231
   29   -0.00032
   30    0.00001
   31   -0.00059
   32    0.02244
   33    0.06377
   34    0.01534
   35   -0.05720
   36    0.00121
   37   -0.07384
   38   -0.06414
   39    0.00114
   40   -0.00049
   41   -0.00593
   42    0.00108
   43    0.00099
   44    0.00036
   45    0.00037
   46    0.00114
   47   -0.00343
   48   -0.05019
   49    0.00698
   50    0.01215
   51   -0.00229
   52   -0.03350
   53    0.01230
   54   -0.00292
   55    0.00096
   56   -0.00092
   57    0.00010
   58   -0.00434
   59    0.00004
   60    0.00006
   61   -0.00106
   62    0.01264
   63    0.03498
   64   -0.00281
   65   -0.01095
   66   -0.00024
   67   -0.00477
   68    0.00909
   69    0.00200
   70    0.00271
   71   -0.00334
   72   -0.00022
   73    0.00093
   74   -0.00017
   75    0.00001
   76   -0.00047
   77    0.01209
   78    0.01651
   79    0.06446
   80   -0.02039
   81   -0.00270
   82    0.03757
   83    0.00041
   84   -0.00304
   85    0.00400
   86   -0.00273
   87   -0.00069
   88    0.00395
   89   -0.00007
   90   -0.00007
   91    0.03983
   92   -0.04028
   93   -0.00616
   94    0.00283
   95    0.00011
   96   -0.02369
   97   -0.03280
   98   -0.00014
   99   -0.00166
  100   -0.00012
  101    0.01018
  102   -0.01824
  103    0.00024
  104   -0.00024
  105    0.00002
  106   -0.04389
  107   -0.03805
  108   -0.00038
  109    0.00274
  110   -0.00008
  111    0.00013
  112   -0.01030
  113   -0.01571
  114   -0.00663
  115    0.00595
  116   -0.00120
  117   -0.01114
  118   -0.00614
  119   -0.00081
  120    0.00258
  121   -0.00047
  122   -0.00012
  123    0.00200
  124   -0.00003
  125   -0.00000
  126    0.01221
  127    0.03374
  128    0.00287
  129   -0.00114
  130   -0.00007
  131   -0.00153
  132    0.00476
  133    0.02444
  134   -0.12078
  135   -0.03755
  136    0.00034
  137   -0.00136
  138    0.03621
  139   -0.00187
  140    0.03268
  141   -0.03642
  142    0.00394
  143   -0.04244
  144   -0.00063
  145    0.00062
  146   -0.00044
  147   -0.00942
  148   -0.03049
  149    0.02802
  150    0.19268
  151   -0.00216
  152    0.02848
  153    0.14474
  154   -0.00146
  155    0.00564
  156   -0.00843
  157    0.00191
  158   -0.00574
  159    0.00001
  160    0.00021